 -5.0000001E-02    1.0000000E-24
 -4.5000002E-02    1.0000000E-24
 -3.9999999E-02    1.0000000E-24
 -3.5000000E-02    1.0000000E-24
 -2.9999999E-02    1.0000000E-24
 -2.5000000E-02    1.0000000E-24
 -2.0000000E-02    1.0000000E-24
 -1.5000000E-02    1.0000000E-24
 -9.9999998E-03    1.0000000E-24
 -4.9999999E-03    1.0000000E-24
  0.0000000E+00    1.0000000E-24
  4.9999999E-03    1.0000000E-24
  9.9999998E-03    1.0000000E-24
  1.5000000E-02    1.0000000E-24
  2.0000000E-02    1.0000000E-24
  2.5000000E-02    1.0000001E-24
  2.9999999E-02    1.0000001E-24
  3.5000000E-02    1.0000001E-24
  3.9999999E-02    1.0000001E-24
  4.5000002E-02    1.0000001E-24
  5.0000001E-02    1.0000001E-24
  5.5000000E-02    1.0000001E-24
  5.9999999E-02    1.0000001E-24
  6.4999998E-02    1.0000001E-24
  7.0000000E-02    1.0000001E-24
  7.5000003E-02    1.0000001E-24
  7.9999998E-02    1.0000001E-24
  8.5000001E-02    1.0000001E-24
  9.0000004E-02    1.0000001E-24
  9.4999999E-02    1.0000001E-24
  0.1000000        1.0000001E-24
  0.1050000        1.0000001E-24
  0.1100000        1.0000001E-24
  0.1150000        1.0000001E-24
  0.1200000        1.0000001E-24
  0.1250000        1.0000001E-24
  0.1300000        1.0000001E-24
  0.1350000        1.0000001E-24
  0.1400000        1.0000001E-24
  0.1450000        1.0000001E-24
  0.1500000        1.0000001E-24
  0.1550000        1.0000001E-24
  0.1600000        1.0000001E-24
  0.1650000        1.0000001E-24
  0.1700000        1.0000000E-24
  0.1750000        1.0000000E-24
  0.1800000        1.0000000E-24
  0.1850000        1.0000001E-24
  0.1900000        1.0000001E-24
  0.1950000        1.0000000E-24
  0.2000000        1.0000000E-24
  0.2050000        1.0000000E-24
  0.2100000        1.0000000E-24
  0.2150000        1.0000000E-24
  0.2200000        1.0000000E-24
  0.2250000        1.0000000E-24
  0.2300000        1.0000000E-24
  0.2350000        1.0000000E-24
  0.2400000        1.0000000E-24
  0.2450000        1.0000000E-24
  0.2500000        1.0000000E-24
  0.2550000        1.0000000E-24
  0.2600000        1.0000000E-24
  0.2650000        1.0000000E-24
  0.2700000        1.0000000E-24
  0.2750000        9.9999992E-25
  0.2800000        1.0000000E-24
  0.2850000        1.0000000E-24
  0.2900000        1.0000000E-24
  0.2950000        1.0000000E-24
  0.3000000        1.0000000E-24
  0.3050000        1.0000000E-24
  0.3100000        1.0000000E-24
  0.3150000        1.0000000E-24
  0.3200000        1.0000000E-24
  0.3250000        1.0000000E-24
  0.3300000        1.0000000E-24
  0.3350000        1.0000000E-24
  0.3400000        1.0000000E-24
  0.3450000        1.0000000E-24
  0.3500000        1.0000001E-24
  0.3550000        1.0000002E-24
  0.3600000        1.0000002E-24
  0.3650000        1.0000002E-24
  0.3700000        1.0000002E-24
  0.3750000        1.0000002E-24
  0.3800000        1.0000002E-24
  0.3850000        1.0000002E-24
  0.3900000        1.0000002E-24
  0.3950000        1.0000002E-24
  0.4000000        1.0000002E-24
  0.4050000        1.0000002E-24
  0.4100000        1.0000002E-24
  0.4150000        1.0000002E-24
  0.4200000        1.0000002E-24
  0.4250000        1.0000002E-24
  0.4300000        1.0000001E-24
  0.4350000        1.0000001E-24
  0.4400000        1.0000001E-24
  0.4450000        1.0000001E-24
  0.4500000        1.0000001E-24
  0.4550000        1.0000001E-24
  0.4600000        1.0000001E-24
  0.4650000        1.0000000E-24
  0.4700000        1.0000000E-24
  0.4750000        1.0000000E-24
  0.4800000        1.0000001E-24
  0.4850000        1.0000001E-24
  0.4900000        1.0000001E-24
  0.4950000        1.0000001E-24
  0.5000000        1.0000001E-24
  0.5050000        1.0000001E-24
  0.5100000        1.0000001E-24
  0.5150000        1.0000001E-24
  0.5200000        1.0000000E-24
  0.5250000        1.0000000E-24
  0.5300000        1.0000000E-24
  0.5350000        1.0000000E-24
  0.5400000        1.0000000E-24
  0.5450000        1.0000000E-24
  0.5500000        1.0000000E-24
  0.5550000        1.0000000E-24
  0.5600000        1.0000000E-24
  0.5650000        1.0000000E-24
  0.5700000        1.0000000E-24
  0.5750000        1.0000000E-24
  0.5800000        1.0000000E-24
  0.5850000        1.0000000E-24
  0.5900000        1.0000000E-24
  0.5950000        1.0000000E-24
  0.6000000        9.9999992E-25
  0.6050000        9.9999992E-25
  0.6100000        9.9999992E-25
  0.6150000        9.9999992E-25
  0.6200000        9.9999992E-25
  0.6250000        9.9999992E-25
  0.6300000        9.9999992E-25
  0.6350000        9.9999992E-25
  0.6400000        9.9999992E-25
  0.6450000        1.0000000E-24
  0.6500000        1.0000000E-24
  0.6550000        1.0000001E-24
  0.6600000        1.0000002E-24
  0.6650000        1.0000002E-24
  0.6700000        1.0000002E-24
  0.6750000        1.0000002E-24
  0.6800000        1.0000002E-24
  0.6850000        1.0000002E-24
  0.6900000        1.0000002E-24
  0.6950000        1.0000002E-24
  0.7000000        1.0000002E-24
  0.7050000        1.0000003E-24
  0.7100000        1.0000003E-24
  0.7150000        1.0000003E-24
  0.7200000        1.0000003E-24
  0.7250000        1.0000003E-24
  0.7300000        1.0000002E-24
  0.7350000        1.0000002E-24
  0.7400000        1.0000002E-24
  0.7450000        1.0000002E-24
  0.7500000        1.0000002E-24
  0.7550000        1.0000001E-24
  0.7600000        1.0000000E-24
  0.7650000        1.0000000E-24
  0.7700000        1.0000000E-24
  0.7750000        1.0000000E-24
  0.7800000        1.0000000E-24
  0.7850000        1.0000000E-24
  0.7900000        1.0000000E-24
  0.7950000        1.0000000E-24
  0.8000000        1.0000001E-24
  0.8050000        1.0000001E-24
  0.8100000        1.0000001E-24
  0.8150000        1.0000002E-24
  0.8200000        1.0000002E-24
  0.8250000        1.0000002E-24
  0.8300000        1.0000002E-24
  0.8350000        1.0000002E-24
  0.8400000        1.0000002E-24
  0.8450000        1.0000002E-24
  0.8500000        1.0000002E-24
  0.8550000        1.0000001E-24
  0.8600000        1.0000001E-24
  0.8650000        1.0000001E-24
  0.8700000        1.0000001E-24
  0.8750000        1.0000002E-24
  0.8800000        1.0000002E-24
  0.8850000        1.0000002E-24
  0.8900000        1.0000002E-24
  0.8950000        1.0000002E-24
  0.9000000        1.0000002E-24
  0.9050000        1.0000001E-24
  0.9100000        1.0000001E-24
  0.9150000        1.0000001E-24
  0.9200000        1.0000001E-24
  0.9250000        1.0000001E-24
  0.9300000        1.0000001E-24
  0.9350000        1.0000001E-24
  0.9400000        1.0000001E-24
  0.9450000        1.0000001E-24
  0.9500000        1.0000001E-24
  0.9550000        1.0000001E-24
  0.9600000        1.0000002E-24
  0.9650000        1.0000001E-24
  0.9700000        1.0000001E-24
  0.9750000        1.0000001E-24
  0.9800000        1.0000002E-24
  0.9850000        1.0000002E-24
  0.9900000        1.0000002E-24
  0.9950000        1.0000002E-24
   1.000000        1.0000002E-24
   1.005000        1.0000003E-24
   1.010000        1.0000003E-24
   1.015000        1.0000003E-24
   1.020000        1.0000003E-24
   1.025000        1.0000003E-24
   1.030000        1.0000002E-24
   1.035000        1.0000002E-24
   1.040000        1.0000001E-24
   1.045000        1.0000001E-24
   1.050000        1.0000001E-24
   1.055000        1.0000000E-24
   1.060000        1.0000000E-24
   1.065000        9.9999992E-25
   1.070000        9.9999992E-25
   1.075000        9.9999982E-25
   1.080000        9.9999992E-25
   1.085000        9.9999992E-25
   1.090000        9.9999992E-25
   1.095000        9.9999992E-25
   1.100000        9.9999992E-25
   1.105000        9.9999992E-25
   1.110000        9.9999992E-25
   1.115000        9.9999992E-25
   1.120000        9.9999992E-25
   1.125000        1.0000000E-24
   1.130000        1.0000000E-24
   1.135000        1.0000000E-24
   1.140000        1.0000000E-24
   1.145000        9.9999992E-25
   1.150000        9.9999992E-25
   1.155000        9.9999992E-25
   1.160000        9.9999992E-25
   1.165000        9.9999992E-25
   1.170000        1.0000000E-24
   1.175000        1.0000001E-24
   1.180000        1.0000001E-24
   1.185000        1.0000001E-24
   1.190000        1.0000001E-24
   1.195000        1.0000002E-24
   1.200000        1.0000001E-24
   1.205000        1.0000001E-24
   1.210000        1.0000001E-24
   1.215000        1.0000000E-24
   1.220000        1.0000000E-24
   1.225000        1.0000000E-24
   1.230000        1.0000000E-24
   1.235000        1.0000000E-24
   1.240000        1.0000000E-24
   1.245000        1.0000000E-24
   1.250000        1.0000000E-24
   1.255000        1.0000001E-24
   1.260000        1.0000001E-24
   1.265000        1.0000001E-24
   1.270000        1.0000001E-24
   1.275000        1.0000000E-24
   1.280000        1.0000000E-24
   1.285000        1.0000000E-24
   1.290000        9.9999992E-25
   1.295000        9.9999992E-25
   1.300000        9.9999982E-25
   1.305000        9.9999982E-25
   1.310000        9.9999992E-25
   1.315000        9.9999992E-25
   1.320000        9.9999992E-25
   1.325000        9.9999992E-25
   1.330000        9.9999992E-25
   1.335000        9.9999992E-25
   1.340000        9.9999992E-25
   1.345000        9.9999992E-25
   1.350000        9.9999992E-25
   1.355000        1.0000000E-24
   1.360000        1.0000001E-24
   1.365000        1.0000002E-24
   1.370000        1.0000002E-24
   1.375000        1.0000003E-24
   1.380000        1.0000003E-24
   1.385000        1.0000003E-24
   1.390000        1.0000003E-24
   1.395000        1.0000003E-24
   1.400000        1.0000003E-24
   1.405000        1.0000003E-24
   1.410000        1.0000003E-24
   1.415000        1.0000003E-24
   1.420000        1.0000002E-24
   1.425000        1.0000002E-24
   1.430000        1.0000002E-24
   1.435000        1.0000002E-24
   1.440000        1.0000002E-24
   1.445000        1.0000002E-24
   1.450000        1.0000003E-24
   1.455000        1.0000003E-24
   1.460000        1.0000003E-24
   1.465000        1.0000003E-24
   1.470000        1.0000003E-24
   1.475000        1.0000002E-24
   1.480000        1.0000002E-24
   1.485000        1.0000002E-24
   1.490000        1.0000002E-24
   1.495000        1.0000002E-24
   1.500000        1.0000002E-24
   1.505000        1.0000003E-24
   1.510000        1.0000004E-24
   1.515000        1.0000004E-24
   1.520000        1.0000004E-24
   1.525000        1.0000005E-24
   1.530000        1.0000005E-24
   1.535000        1.0000005E-24
   1.540000        1.0000005E-24
   1.545000        1.0000005E-24
   1.550000        1.0000004E-24
   1.555000        1.0000004E-24
   1.560000        1.0000003E-24
   1.565000        1.0000002E-24
   1.570000        1.0000002E-24
   1.575000        1.0000001E-24
   1.580000        1.0000000E-24
   1.585000        9.9999992E-25
   1.590000        9.9999992E-25
   1.595000        9.9999982E-25
   1.600000        9.9999982E-25
   1.605000        9.9999982E-25
   1.610000        9.9999982E-25
   1.615000        9.9999982E-25
   1.620000        9.9999972E-25
   1.625000        9.9999982E-25
   1.630000        9.9999982E-25
   1.635000        9.9999992E-25
   1.640000        1.0000001E-24
   1.645000        1.0000001E-24
   1.650000        1.0000001E-24
   1.655000        1.0000001E-24
   1.660000        1.0000001E-24
   1.665000        1.0000001E-24
   1.670000        1.0000001E-24
   1.675000        1.0000001E-24
   1.680000        1.0000001E-24
   1.685000        1.0000001E-24
   1.690000        1.0000001E-24
   1.695000        1.0000001E-24
   1.700000        1.0000001E-24
   1.705000        1.0000002E-24
   1.710000        1.0000001E-24
   1.715000        1.0000001E-24
   1.720000        1.0000001E-24
   1.725000        1.0000000E-24
   1.730000        1.0000000E-24
   1.735000        9.9999992E-25
   1.740000        9.9999992E-25
   1.745000        9.9999992E-25
   1.750000        9.9999982E-25
   1.755000        9.9999972E-25
   1.760000        9.9999963E-25
   1.765000        9.9999963E-25
   1.770000        9.9999953E-25
   1.775000        9.9999953E-25
   1.780000        9.9999963E-25
   1.785000        9.9999972E-25
   1.790000        9.9999972E-25
   1.795000        9.9999972E-25
   1.800000        9.9999972E-25
   1.805000        9.9999982E-25
   1.810000        9.9999982E-25
   1.815000        9.9999982E-25
   1.820000        9.9999972E-25
   1.825000        9.9999972E-25
   1.830000        9.9999972E-25
   1.835000        9.9999963E-25
   1.840000        9.9999963E-25
   1.845000        9.9999953E-25
   1.850000        9.9999953E-25
   1.855000        9.9999953E-25
   1.860000        9.9999953E-25
   1.865000        9.9999953E-25
   1.870000        9.9999963E-25
   1.875000        9.9999963E-25
   1.880000        9.9999963E-25
   1.885000        9.9999972E-25
   1.890000        9.9999982E-25
   1.895000        9.9999992E-25
   1.900000        1.0000001E-24
   1.905000        1.0000001E-24
   1.910000        1.0000002E-24
   1.915000        1.0000003E-24
   1.920000        1.0000004E-24
   1.925000        1.0000005E-24
   1.930000        1.0000005E-24
   1.935000        1.0000005E-24
   1.940000        1.0000005E-24
   1.945000        1.0000004E-24
   1.950000        1.0000003E-24
   1.955000        1.0000002E-24
   1.960000        1.0000001E-24
   1.965000        1.0000000E-24
   1.970000        1.0000000E-24
   1.975000        1.0000000E-24
   1.980000        1.0000000E-24
   1.985000        1.0000001E-24
   1.990000        1.0000001E-24
   1.995000        1.0000002E-24
   2.000000        1.0000003E-24
   2.005000        1.0000003E-24
   2.010000        1.0000004E-24
   2.015000        1.0000004E-24
   2.020000        1.0000004E-24
   2.025000        1.0000005E-24
   2.030000        1.0000005E-24
   2.035000        1.0000006E-24
   2.040000        1.0000006E-24
   2.045000        1.0000006E-24
   2.050000        1.0000006E-24
   2.055000        1.0000006E-24
   2.060000        1.0000005E-24
   2.065000        1.0000005E-24
   2.070000        1.0000005E-24
   2.075000        1.0000005E-24
   2.080000        1.0000005E-24
   2.085000        1.0000005E-24
   2.090000        1.0000005E-24
   2.095000        1.0000006E-24
   2.100000        1.0000006E-24
   2.105000        1.0000006E-24
   2.110000        1.0000006E-24
   2.115000        1.0000006E-24
   2.120000        1.0000006E-24
   2.125000        1.0000006E-24
   2.130000        1.0000007E-24
   2.135000        1.0000008E-24
   2.140000        1.0000008E-24
   2.145000        1.0000008E-24
   2.150000        1.0000008E-24
   2.155000        1.0000008E-24
   2.160000        1.0000008E-24
   2.165000        1.0000008E-24
   2.170000        1.0000008E-24
   2.175000        1.0000008E-24
   2.180000        1.0000009E-24
   2.185000        1.0000009E-24
   2.190000        1.0000009E-24
   2.195000        1.0000010E-24
   2.200000        1.0000010E-24
   2.205000        1.0000010E-24
   2.210000        1.0000009E-24
   2.215000        1.0000009E-24
   2.220000        1.0000009E-24
   2.225000        1.0000008E-24
   2.230000        1.0000008E-24
   2.235000        1.0000007E-24
   2.240000        1.0000007E-24
   2.245000        1.0000006E-24
   2.250000        1.0000006E-24
   2.255000        1.0000006E-24
   2.260000        1.0000005E-24
   2.265000        1.0000004E-24
   2.270000        1.0000003E-24
   2.275000        1.0000002E-24
   2.280000        1.0000002E-24
   2.285000        1.0000002E-24
   2.290000        1.0000002E-24
   2.295000        1.0000002E-24
   2.300000        1.0000002E-24
   2.305000        1.0000003E-24
   2.310000        1.0000003E-24
   2.315000        1.0000004E-24
   2.320000        1.0000004E-24
   2.325000        1.0000004E-24
   2.330000        1.0000004E-24
   2.335000        1.0000005E-24
   2.340000        1.0000005E-24
   2.345000        1.0000005E-24
   2.350000        1.0000005E-24
   2.355000        1.0000004E-24
   2.360000        1.0000003E-24
   2.365000        1.0000002E-24
   2.370000        1.0000000E-24
   2.375000        9.9999992E-25
   2.380000        9.9999982E-25
   2.385000        9.9999972E-25
   2.390000        9.9999963E-25
   2.395000        9.9999963E-25
   2.400000        9.9999963E-25
   2.405000        9.9999953E-25
   2.410000        9.9999963E-25
   2.415000        9.9999963E-25
   2.420000        9.9999963E-25
   2.425000        9.9999972E-25
   2.430000        9.9999972E-25
   2.435000        9.9999982E-25
   2.440000        9.9999992E-25
   2.445000        1.0000000E-24
   2.450000        1.0000001E-24
   2.455000        1.0000001E-24
   2.460000        1.0000002E-24
   2.465000        1.0000002E-24
   2.470000        1.0000002E-24
   2.475000        1.0000001E-24
   2.480000        9.9999992E-25
   2.485000        9.9999982E-25
   2.490000        9.9999963E-25
   2.495000        9.9999953E-25
   2.500000        9.9999943E-25
   2.505000        9.9999933E-25
   2.510000        9.9999923E-25
   2.515000        9.9999913E-25
   2.520000        9.9999913E-25
   2.525000        9.9999913E-25
   2.530000        9.9999913E-25
   2.535000        9.9999923E-25
   2.540000        9.9999923E-25
   2.545000        9.9999923E-25
   2.550000        9.9999923E-25
   2.555000        9.9999923E-25
   2.560000        9.9999923E-25
   2.565000        9.9999933E-25
   2.570000        9.9999933E-25
   2.575000        9.9999943E-25
   2.580000        9.9999943E-25
   2.585000        9.9999953E-25
   2.590000        9.9999953E-25
   2.595000        9.9999963E-25
   2.600000        9.9999963E-25
   2.605000        9.9999953E-25
   2.610000        9.9999943E-25
   2.615000        9.9999943E-25
   2.620000        9.9999933E-25
   2.625000        9.9999933E-25
   2.630000        9.9999923E-25
   2.635000        9.9999923E-25
   2.640000        9.9999913E-25
   2.645000        9.9999913E-25
   2.650000        9.9999913E-25
   2.655000        9.9999913E-25
   2.660000        9.9999913E-25
   2.665000        9.9999913E-25
   2.670000        9.9999913E-25
   2.675000        9.9999923E-25
   2.680000        9.9999923E-25
   2.685000        9.9999933E-25
   2.690000        9.9999953E-25
   2.695000        9.9999963E-25
   2.700000        9.9999972E-25
   2.705000        9.9999972E-25
   2.710000        9.9999982E-25
   2.715000        9.9999982E-25
   2.720000        9.9999992E-25
   2.725000        9.9999982E-25
   2.730000        9.9999982E-25
   2.735000        9.9999982E-25
   2.740000        9.9999982E-25
   2.745000        9.9999972E-25
   2.750000        9.9999972E-25
   2.755000        9.9999972E-25
   2.760000        9.9999972E-25
   2.765000        9.9999972E-25
   2.770000        9.9999982E-25
   2.775000        9.9999992E-25
   2.780000        1.0000000E-24
   2.785000        1.0000001E-24
   2.790000        1.0000002E-24
   2.795000        1.0000003E-24
   2.800000        1.0000004E-24
   2.805000        1.0000005E-24
   2.810000        1.0000005E-24
   2.815000        1.0000006E-24
   2.820000        1.0000006E-24
   2.825000        1.0000006E-24
   2.830000        1.0000006E-24
   2.835000        1.0000005E-24
   2.840000        1.0000006E-24
   2.845000        1.0000006E-24
   2.850000        1.0000005E-24
   2.855000        1.0000005E-24
   2.860000        1.0000005E-24
   2.865000        1.0000005E-24
   2.870000        1.0000005E-24
   2.875000        1.0000005E-24
   2.880000        1.0000005E-24
   2.885000        1.0000006E-24
   2.890000        1.0000007E-24
   2.895000        1.0000007E-24
   2.900000        1.0000008E-24
   2.905000        1.0000008E-24
   2.910000        1.0000008E-24
   2.915000        1.0000008E-24
   2.920000        1.0000008E-24
   2.925000        1.0000007E-24
   2.930000        1.0000006E-24
   2.935000        1.0000006E-24
   2.940000        1.0000006E-24
   2.945000        1.0000005E-24
   2.950000        1.0000005E-24
   2.955000        1.0000006E-24
   2.960000        1.0000006E-24
   2.965000        1.0000007E-24
   2.970000        1.0000008E-24
   2.975000        1.0000008E-24
   2.980000        1.0000010E-24
   2.985000        1.0000011E-24
   2.990000        1.0000012E-24
   2.995000        1.0000013E-24
   3.000000        1.0000014E-24
   3.005000        1.0000014E-24
   3.010000        1.0000015E-24
   3.015000        1.0000015E-24
   3.020000        1.0000015E-24
   3.025000        1.0000015E-24
   3.030000        1.0000015E-24
   3.035000        1.0000014E-24
   3.040000        1.0000014E-24
   3.045000        1.0000013E-24
   3.050000        1.0000012E-24
   3.055000        1.0000012E-24
   3.060000        1.0000010E-24
   3.065000        1.0000009E-24
   3.070000        1.0000008E-24
   3.075000        1.0000008E-24
   3.080000        1.0000007E-24
   3.085000        1.0000006E-24
   3.090000        1.0000005E-24
   3.095000        1.0000004E-24
   3.100000        1.0000002E-24
   3.105000        1.0000002E-24
   3.110000        1.0000001E-24
   3.115000        1.0000000E-24
   3.120000        1.0000000E-24
   3.125000        1.0000000E-24
   3.130000        9.9999982E-25
   3.135000        9.9999982E-25
   3.140000        9.9999972E-25
   3.145000        9.9999972E-25
   3.150000        9.9999972E-25
   3.155000        9.9999963E-25
   3.160000        9.9999953E-25
   3.165000        9.9999943E-25
   3.170000        9.9999933E-25
   3.175000        9.9999933E-25
   3.180000        9.9999923E-25
   3.185000        9.9999923E-25
   3.190000        9.9999923E-25
   3.195000        9.9999913E-25
   3.200000        9.9999913E-25
   3.205000        9.9999903E-25
   3.210000        9.9999893E-25
   3.215000        9.9999893E-25
   3.220000        9.9999893E-25
   3.225000        9.9999884E-25
   3.230000        9.9999884E-25
   3.235000        9.9999884E-25
   3.240000        9.9999884E-25
   3.245000        9.9999893E-25
   3.250000        9.9999893E-25
   3.255000        9.9999893E-25
   3.260000        9.9999903E-25
   3.265000        9.9999913E-25
   3.270000        9.9999933E-25
   3.275000        9.9999943E-25
   3.280000        9.9999963E-25
   3.285000        9.9999972E-25
   3.290000        9.9999982E-25
   3.295000        9.9999992E-25
   3.300000        1.0000000E-24
   3.305000        1.0000000E-24
   3.310000        1.0000000E-24
   3.315000        1.0000000E-24
   3.320000        1.0000000E-24
   3.325000        1.0000000E-24
   3.330000        1.0000000E-24
   3.335000        9.9999992E-25
   3.340000        9.9999992E-25
   3.345000        9.9999982E-25
   3.350000        9.9999982E-25
   3.355000        9.9999982E-25
   3.360000        9.9999992E-25
   3.365000        9.9999992E-25
   3.370000        9.9999992E-25
   3.375000        1.0000000E-24
   3.380000        1.0000000E-24
   3.385000        1.0000000E-24
   3.390000        1.0000000E-24
   3.395000        1.0000000E-24
   3.400000        1.0000000E-24
   3.405000        9.9999992E-25
   3.410000        9.9999992E-25
   3.415000        9.9999982E-25
   3.420000        9.9999972E-25
   3.425000        9.9999963E-25
   3.430000        9.9999953E-25
   3.435000        9.9999943E-25
   3.440000        9.9999933E-25
   3.445000        9.9999923E-25
   3.450000        9.9999913E-25
   3.455000        9.9999903E-25
   3.460000        9.9999903E-25
   3.465000        9.9999903E-25
   3.470000        9.9999913E-25
   3.475000        9.9999913E-25
   3.480000        9.9999933E-25
   3.485000        9.9999943E-25
   3.490000        9.9999963E-25
   3.495000        9.9999982E-25
   3.500000        9.9999992E-25
   3.505000        1.0000000E-24
   3.510000        1.0000000E-24
   3.515000        1.0000001E-24
   3.520000        1.0000002E-24
   3.525000        1.0000003E-24
   3.530000        1.0000003E-24
   3.535000        1.0000003E-24
   3.540000        1.0000003E-24
   3.545000        1.0000004E-24
   3.550000        1.0000004E-24
   3.555000        1.0000005E-24
   3.560000        1.0000005E-24
   3.565000        1.0000005E-24
   3.570000        1.0000005E-24
   3.575000        1.0000005E-24
   3.580000        1.0000005E-24
   3.585000        1.0000004E-24
   3.590000        1.0000004E-24
   3.595000        1.0000004E-24
   3.600000        1.0000005E-24
   3.605000        1.0000006E-24
   3.610000        1.0000006E-24
   3.615000        1.0000006E-24
   3.620000        1.0000007E-24
   3.625000        1.0000008E-24
   3.630000        1.0000008E-24
   3.635000        1.0000009E-24
   3.640000        1.0000010E-24
   3.645000        1.0000010E-24
   3.650000        1.0000010E-24
   3.655000        1.0000010E-24
   3.660000        1.0000010E-24
   3.665000        1.0000010E-24
   3.670000        1.0000009E-24
   3.675000        1.0000009E-24
   3.680000        1.0000008E-24
   3.685000        1.0000006E-24
   3.690000        1.0000005E-24
   3.695000        1.0000003E-24
   3.700000        1.0000002E-24
   3.705000        1.0000001E-24
   3.710000        1.0000000E-24
   3.715000        1.0000000E-24
   3.720000        9.9999992E-25
   3.725000        9.9999992E-25
   3.730000        1.0000000E-24
   3.735000        1.0000000E-24
   3.740000        1.0000001E-24
   3.745000        1.0000002E-24
   3.750000        1.0000003E-24
   3.755000        1.0000004E-24
   3.760000        1.0000005E-24
   3.765000        1.0000005E-24
   3.770000        1.0000006E-24
   3.775000        1.0000006E-24
   3.780000        1.0000005E-24
   3.785000        1.0000005E-24
   3.790000        1.0000004E-24
   3.795000        1.0000003E-24
   3.800000        1.0000002E-24
   3.805000        1.0000001E-24
   3.810000        1.0000000E-24
   3.815000        9.9999992E-25
   3.820000        9.9999982E-25
   3.825000        9.9999972E-25
   3.830000        9.9999972E-25
   3.835000        9.9999972E-25
   3.840000        9.9999972E-25
   3.845000        9.9999972E-25
   3.850000        9.9999972E-25
   3.855000        9.9999972E-25
   3.860000        9.9999972E-25
   3.865000        9.9999972E-25
   3.870000        9.9999972E-25
   3.875000        9.9999972E-25
   3.880000        9.9999982E-25
   3.885000        9.9999972E-25
   3.890000        9.9999972E-25
   3.895000        9.9999972E-25
   3.900000        9.9999972E-25
   3.905000        9.9999972E-25
   3.910000        9.9999972E-25
   3.915000        9.9999972E-25
   3.920000        9.9999972E-25
   3.925000        9.9999972E-25
   3.930000        9.9999972E-25
   3.935000        9.9999972E-25
   3.940000        9.9999982E-25
   3.945000        9.9999992E-25
   3.950000        1.0000000E-24
   3.955000        1.0000001E-24
   3.960000        1.0000002E-24
   3.965000        1.0000003E-24
   3.970000        1.0000003E-24
   3.975000        1.0000003E-24
   3.980000        1.0000003E-24
   3.985000        1.0000003E-24
   3.990000        1.0000002E-24
   3.995000        1.0000001E-24
   4.000000        1.0000000E-24
   4.005000        9.9999992E-25
   4.010000        9.9999982E-25
   4.015000        9.9999982E-25
   4.020000        9.9999972E-25
   4.025000        9.9999972E-25
   4.030000        9.9999972E-25
   4.035000        9.9999972E-25
   4.040000        9.9999972E-25
   4.045000        9.9999972E-25
   4.050000        9.9999972E-25
   4.055000        9.9999972E-25
   4.060000        9.9999982E-25
   4.065000        9.9999982E-25
   4.070000        9.9999992E-25
   4.075000        1.0000000E-24
   4.080000        1.0000001E-24
   4.085000        1.0000001E-24
   4.090000        1.0000001E-24
   4.095000        1.0000002E-24
   4.100000        1.0000002E-24
   4.105000        1.0000002E-24
   4.110000        1.0000002E-24
   4.115000        1.0000002E-24
   4.120000        1.0000002E-24
   4.125000        1.0000002E-24
   4.130000        1.0000003E-24
   4.135000        1.0000003E-24
   4.140000        1.0000005E-24
   4.145000        1.0000006E-24
   4.150000        1.0000008E-24
   4.155000        1.0000009E-24
   4.160000        1.0000011E-24
   4.165000        1.0000012E-24
   4.170000        1.0000013E-24
   4.175000        1.0000014E-24
   4.180000        1.0000014E-24
   4.185000        1.0000015E-24
   4.190000        1.0000014E-24
   4.195000        1.0000014E-24
   4.200000        1.0000013E-24
   4.205000        1.0000012E-24
   4.210000        1.0000010E-24
   4.215000        1.0000009E-24
   4.220000        1.0000008E-24
   4.225000        1.0000007E-24
   4.230000        1.0000006E-24
   4.235000        1.0000006E-24
   4.240000        1.0000005E-24
   4.245000        1.0000005E-24
   4.250000        1.0000005E-24
   4.255000        1.0000004E-24
   4.260000        1.0000004E-24
   4.265000        1.0000004E-24
   4.270000        1.0000004E-24
   4.275000        1.0000004E-24
   4.280000        1.0000003E-24
   4.285000        1.0000003E-24
   4.290000        1.0000003E-24
   4.295000        1.0000003E-24
   4.300000        1.0000002E-24
   4.305000        1.0000002E-24
   4.310000        1.0000002E-24
   4.315000        1.0000002E-24
   4.320000        1.0000003E-24
   4.325000        1.0000003E-24
   4.330000        1.0000003E-24
   4.335000        1.0000003E-24
   4.340000        1.0000003E-24
   4.345000        1.0000003E-24
   4.350000        1.0000003E-24
   4.355000        1.0000003E-24
   4.360000        1.0000003E-24
   4.365000        1.0000003E-24
   4.370000        1.0000003E-24
   4.375000        1.0000003E-24
   4.380000        1.0000003E-24
   4.385000        1.0000002E-24
   4.390000        1.0000001E-24
   4.395000        1.0000001E-24
   4.400000        1.0000000E-24
   4.405000        9.9999992E-25
   4.410000        9.9999982E-25
   4.415000        9.9999972E-25
   4.420000        9.9999963E-25
   4.425000        9.9999963E-25
   4.430000        9.9999953E-25
   4.435000        9.9999953E-25
   4.440000        9.9999953E-25
   4.445000        9.9999953E-25
   4.450000        9.9999953E-25
   4.455000        9.9999953E-25
   4.460000        9.9999943E-25
   4.465000        9.9999943E-25
   4.470000        9.9999943E-25
   4.475000        9.9999943E-25
   4.480000        9.9999933E-25
   4.485000        9.9999933E-25
   4.490000        9.9999923E-25