 -0.1200000      0.0000000E+00
 -0.1080000      0.0000000E+00
 -9.6000001E-02  0.0000000E+00
 -8.3999999E-02  0.0000000E+00
 -7.1999997E-02  0.0000000E+00
 -5.9999999E-02  0.0000000E+00
 -4.8000000E-02  0.0000000E+00
 -3.5999998E-02  0.0000000E+00
 -2.4000000E-02  0.0000000E+00
 -1.2000000E-02  0.0000000E+00
  6.9388939E-18  0.0000000E+00
  1.2000000E-02  0.0000000E+00
  2.4000000E-02  0.0000000E+00
  3.5999998E-02  0.0000000E+00
  4.8000000E-02  0.0000000E+00
  5.9999999E-02  0.0000000E+00
  7.1999997E-02  0.0000000E+00
  8.3999999E-02  0.0000000E+00
  9.6000001E-02  0.0000000E+00
  0.1080000      0.0000000E+00
  0.1200000      0.0000000E+00
  0.1320000      0.0000000E+00
  0.1440000      0.0000000E+00
  0.1560000      0.0000000E+00
  0.1680000      0.0000000E+00
  0.1800000      0.0000000E+00
  0.1920000      0.0000000E+00
  0.2040000      0.0000000E+00
  0.2160000      0.0000000E+00
  0.2280000      0.0000000E+00
  0.2400000      0.0000000E+00
  0.2520000      0.0000000E+00
  0.2640000      0.0000000E+00
  0.2760000      0.0000000E+00
  0.2880000      0.0000000E+00
  0.3000000      0.0000000E+00
  0.3120000      0.0000000E+00
  0.3240000      0.0000000E+00
  0.3360000      0.0000000E+00
  0.3480000      0.0000000E+00
  0.3600000      0.0000000E+00
  0.3720000      0.0000000E+00
  0.3840000      0.0000000E+00
  0.3960000      0.0000000E+00
  0.4080000      0.0000000E+00
  0.4200000      0.0000000E+00
  0.4320000      0.0000000E+00
  0.4440000      0.0000000E+00
  0.4560000      0.0000000E+00
  0.4680000      0.0000000E+00
  0.4800000      0.0000000E+00
  0.4920000      0.0000000E+00
  0.5040000      0.0000000E+00
  0.5160000      0.0000000E+00
  0.5280000      0.0000000E+00
  0.5400000      0.0000000E+00
  0.5520000      0.0000000E+00
  0.5640000      0.0000000E+00
  0.5760000      0.0000000E+00
  0.5880000      0.0000000E+00
  0.6000000      0.0000000E+00
  0.6120000      0.0000000E+00
  0.6240000      0.0000000E+00
  0.6360000      0.0000000E+00
  0.6480000      0.0000000E+00
  0.6600000      0.0000000E+00
  0.6720000      0.0000000E+00
  0.6840000      0.0000000E+00
  0.6960000      0.0000000E+00
  0.7080000      0.0000000E+00
  0.7200000      0.0000000E+00
  0.7320000      0.0000000E+00
  0.7440000      0.0000000E+00
  0.7560000      0.0000000E+00
  0.7680000      0.0000000E+00
  0.7800000      0.0000000E+00
  0.7920000      0.0000000E+00
  0.8040000      0.0000000E+00
  0.8160000      0.0000000E+00
  0.8280000      0.0000000E+00
  0.8400000      0.0000000E+00
  0.8520000      0.0000000E+00
  0.8640000      0.0000000E+00
  0.8760000      0.0000000E+00
  0.8880000      0.0000000E+00
  0.9000000      0.0000000E+00
  0.9120000      0.0000000E+00
  0.9240000      0.0000000E+00
  0.9360000      0.0000000E+00
  0.9480000      0.0000000E+00
  0.9600000      0.0000000E+00
  0.9720000      0.0000000E+00
  0.9840000      0.0000000E+00
  0.9960000      0.0000000E+00
   1.008000      0.0000000E+00
   1.020000      0.0000000E+00
   1.032000      0.0000000E+00
   1.044000      0.0000000E+00
   1.056000      0.0000000E+00
   1.068000      0.0000000E+00
   1.080000      0.0000000E+00
   1.092000      0.0000000E+00
   1.104000      0.0000000E+00
   1.116000      0.0000000E+00
   1.128000      0.0000000E+00
   1.140000      0.0000000E+00
   1.152000      0.0000000E+00
   1.164000      0.0000000E+00
   1.176000      0.0000000E+00
   1.188000      0.0000000E+00
   1.200000      0.0000000E+00
   1.212000      0.0000000E+00
   1.224000      0.0000000E+00
   1.236000      0.0000000E+00
   1.248000      0.0000000E+00
   1.260000      0.0000000E+00
   1.272000      0.0000000E+00
   1.284000      0.0000000E+00
   1.296000      0.0000000E+00
   1.308000      0.0000000E+00
   1.320000      0.0000000E+00
   1.332000      0.0000000E+00
   1.344000      0.0000000E+00
   1.356000      0.0000000E+00
   1.368000      0.0000000E+00
   1.380000      0.0000000E+00
   1.392000      0.0000000E+00
   1.404000      0.0000000E+00
   1.416000      0.0000000E+00
   1.428000      0.0000000E+00
   1.440000      0.0000000E+00
   1.452000      0.0000000E+00
   1.464000      0.0000000E+00
   1.476000      0.0000000E+00
   1.488000      0.0000000E+00
   1.500000      0.0000000E+00
   1.512000      0.0000000E+00
   1.524000      0.0000000E+00
   1.536000      0.0000000E+00
   1.548000      0.0000000E+00
   1.560000      0.0000000E+00
   1.572000      0.0000000E+00
   1.584000      0.0000000E+00
   1.596000      0.0000000E+00
   1.608000      0.0000000E+00
   1.620000      0.0000000E+00
   1.632000      0.0000000E+00
   1.644000      0.0000000E+00
   1.656000      0.0000000E+00
   1.668000      0.0000000E+00
   1.680000      0.0000000E+00
   1.692000      0.0000000E+00
   1.704000      0.0000000E+00
   1.716000      0.0000000E+00
   1.728000      0.0000000E+00
   1.740000      0.0000000E+00
   1.752000      0.0000000E+00
   1.764000      0.0000000E+00
   1.776000      0.0000000E+00
   1.788000      0.0000000E+00
   1.800000      0.0000000E+00
   1.812000      0.0000000E+00
   1.824000      0.0000000E+00
   1.836000      0.0000000E+00
   1.848000      0.0000000E+00
   1.860000      0.0000000E+00
   1.872000      0.0000000E+00
   1.884000      0.0000000E+00
   1.896000      0.0000000E+00
   1.908000      0.0000000E+00
   1.920000      0.0000000E+00
   1.932000      0.0000000E+00
   1.944000      0.0000000E+00
   1.956000      0.0000000E+00
   1.968000      0.0000000E+00
   1.980000      0.0000000E+00
   1.992000      0.0000000E+00
   2.004000      0.0000000E+00
   2.016000      0.0000000E+00
   2.028000      0.0000000E+00
   2.040000      0.0000000E+00
   2.052000      0.0000000E+00
   2.064000      0.0000000E+00
   2.076000      0.0000000E+00
   2.088000      0.0000000E+00
   2.100000      0.0000000E+00
   2.112000      0.0000000E+00
   2.124000      0.0000000E+00
   2.136000      0.0000000E+00
   2.148000      0.0000000E+00
   2.160000      0.0000000E+00
   2.172000      0.0000000E+00
   2.184000      0.0000000E+00
   2.196000      0.0000000E+00
   2.208000      0.0000000E+00
   2.220000      0.0000000E+00
   2.232000      0.0000000E+00
   2.244000      0.0000000E+00
   2.256000      0.0000000E+00
   2.268000      0.0000000E+00
   2.280000      0.0000000E+00
   2.292000      0.0000000E+00
   2.304000      0.0000000E+00
   2.316000      0.0000000E+00
   2.328000      0.0000000E+00
   2.340000      0.0000000E+00
   2.352000      0.0000000E+00
   2.364000      0.0000000E+00
   2.376000      0.0000000E+00
   2.388000      0.0000000E+00
   2.400000      0.0000000E+00
   2.412000      0.0000000E+00
   2.424000      0.0000000E+00
   2.436000      0.0000000E+00
   2.448000      0.0000000E+00
   2.460000      0.0000000E+00
   2.472000      0.0000000E+00
   2.484000      0.0000000E+00
   2.496000      0.0000000E+00
   2.508000      0.0000000E+00
   2.520000      0.0000000E+00
   2.532000      0.0000000E+00
   2.544000      0.0000000E+00
   2.556000      0.0000000E+00
   2.568000      0.0000000E+00
   2.580000      0.0000000E+00
   2.592000      0.0000000E+00
   2.604000      0.0000000E+00
   2.616000      0.0000000E+00
   2.628000      0.0000000E+00
   2.640000      0.0000000E+00
   2.652000      0.0000000E+00
   2.664000      0.0000000E+00
   2.676000      0.0000000E+00
   2.688000      0.0000000E+00
   2.700000      0.0000000E+00
   2.712000      0.0000000E+00
   2.724000      0.0000000E+00
   2.736000      0.0000000E+00
   2.748000      0.0000000E+00
   2.760000      0.0000000E+00
   2.772000      0.0000000E+00
   2.784000      0.0000000E+00
   2.796000      0.0000000E+00
   2.808000      0.0000000E+00
   2.820000      0.0000000E+00
   2.832000      0.0000000E+00
   2.844000      0.0000000E+00
   2.856000      0.0000000E+00
   2.868000      0.0000000E+00
   2.880000      0.0000000E+00
   2.892000      0.0000000E+00
   2.904000      0.0000000E+00
   2.916000      0.0000000E+00
   2.928000      0.0000000E+00
   2.940000      0.0000000E+00
   2.952000      0.0000000E+00
   2.964000      0.0000000E+00
   2.976000      0.0000000E+00
   2.988000      0.0000000E+00
   3.000000      0.0000000E+00
   3.012000      0.0000000E+00
   3.024000      0.0000000E+00
   3.036000      0.0000000E+00
   3.048000      0.0000000E+00
   3.060000      0.0000000E+00
   3.072000      0.0000000E+00
   3.084000      0.0000000E+00
   3.096000      0.0000000E+00
   3.108000      0.0000000E+00
   3.120000      0.0000000E+00
   3.132000      0.0000000E+00
   3.144000      0.0000000E+00
   3.156000      0.0000000E+00
   3.168000      0.0000000E+00
   3.180000      0.0000000E+00
   3.192000      0.0000000E+00
   3.204000      0.0000000E+00
   3.216000      0.0000000E+00
   3.228000      0.0000000E+00
   3.240000      0.0000000E+00
   3.252000      0.0000000E+00
   3.264000      0.0000000E+00
   3.276000      0.0000000E+00
   3.288000      0.0000000E+00
   3.300000      0.0000000E+00
   3.312000      0.0000000E+00
   3.324000      0.0000000E+00
   3.336000      0.0000000E+00
   3.348000      0.0000000E+00
   3.360000      0.0000000E+00
   3.372000      0.0000000E+00
   3.384000      0.0000000E+00
   3.396000      0.0000000E+00
   3.408000      0.0000000E+00
   3.420000      0.0000000E+00
   3.432000      0.0000000E+00
   3.444000      0.0000000E+00
   3.456000      0.0000000E+00
   3.468000      0.0000000E+00
   3.480000      0.0000000E+00
   3.492000      0.0000000E+00
   3.504000      0.0000000E+00
   3.516000      0.0000000E+00
   3.528000      0.0000000E+00
   3.540000      0.0000000E+00
   3.552000      0.0000000E+00
   3.564000      0.0000000E+00
   3.576000      0.0000000E+00
   3.588000      0.0000000E+00
   3.600000      0.0000000E+00
   3.612000      0.0000000E+00
   3.624000      0.0000000E+00
   3.636000      0.0000000E+00
   3.648000      0.0000000E+00
   3.660000      0.0000000E+00
   3.672000      0.0000000E+00
   3.684000      0.0000000E+00
   3.696000      0.0000000E+00
   3.708000      0.0000000E+00
   3.720000      0.0000000E+00
   3.732000      0.0000000E+00
   3.744000      0.0000000E+00
   3.756000      0.0000000E+00
   3.768000      0.0000000E+00
   3.780000      0.0000000E+00
   3.792000      0.0000000E+00
   3.804000      0.0000000E+00
   3.816000      0.0000000E+00
   3.828000      0.0000000E+00
   3.840000      0.0000000E+00
   3.852000      0.0000000E+00
   3.864000      0.0000000E+00
   3.876000      0.0000000E+00
   3.888000      0.0000000E+00
   3.900000      0.0000000E+00
   3.912000      0.0000000E+00
   3.924000      0.0000000E+00
   3.936000      0.0000000E+00
   3.948000      0.0000000E+00
   3.960000      0.0000000E+00
   3.972000      0.0000000E+00
   3.984000      0.0000000E+00
   3.996000      0.0000000E+00
   4.008000      0.0000000E+00
   4.020000      0.0000000E+00
   4.032000      0.0000000E+00
   4.044000      0.0000000E+00
   4.056000      0.0000000E+00
   4.068000      0.0000000E+00
   4.080000      0.0000000E+00
   4.092000      0.0000000E+00
   4.104000      0.0000000E+00
   4.116000      0.0000000E+00
   4.128000      0.0000000E+00
   4.140000      0.0000000E+00
   4.152000      0.0000000E+00
   4.164000      0.0000000E+00
   4.176000      0.0000000E+00
   4.188000      0.0000000E+00
   4.200000      0.0000000E+00
   4.212000      0.0000000E+00
   4.224000      0.0000000E+00
   4.236000      0.0000000E+00
   4.248000      0.0000000E+00
   4.260000      0.0000000E+00
   4.272000      0.0000000E+00
   4.284000      0.0000000E+00
   4.296000      0.0000000E+00
   4.308000      0.0000000E+00
   4.320000      0.0000000E+00
   4.332000      0.0000000E+00
   4.344000      0.0000000E+00
   4.356000      0.0000000E+00
   4.368000      0.0000000E+00
   4.380000      0.0000000E+00
   4.392000      0.0000000E+00
   4.404000      0.0000000E+00
   4.416000      0.0000000E+00
   4.428000      0.0000000E+00
   4.440000      0.0000000E+00
   4.452000      0.0000000E+00
   4.464000      0.0000000E+00
   4.476000      0.0000000E+00
   4.488000      0.0000000E+00
   4.500000      0.0000000E+00
   4.512000      0.0000000E+00
   4.524000      0.0000000E+00
   4.536000      0.0000000E+00
   4.548000      0.0000000E+00
   4.560000      0.0000000E+00
   4.572000      0.0000000E+00
   4.584000      0.0000000E+00
   4.596000      0.0000000E+00
   4.608000      0.0000000E+00
   4.620000      0.0000000E+00
   4.632000      0.0000000E+00
   4.644000      0.0000000E+00
   4.656000      0.0000000E+00
   4.668000      0.0000000E+00
   4.680000      0.0000000E+00
   4.692000      0.0000000E+00
   4.704000      0.0000000E+00
   4.716000      0.0000000E+00
   4.728000      0.0000000E+00
   4.740000      0.0000000E+00
   4.752000      0.0000000E+00
   4.764000      0.0000000E+00
   4.776000      0.0000000E+00
   4.788000      0.0000000E+00
   4.800000      0.0000000E+00
   4.812000      0.0000000E+00
   4.824000      0.0000000E+00
   4.836000      0.0000000E+00
   4.848000      0.0000000E+00
   4.860000      0.0000000E+00
   4.872000      0.0000000E+00
   4.884000      0.0000000E+00
   4.896000      0.0000000E+00
   4.908000      0.0000000E+00
   4.920000      0.0000000E+00
   4.932000      0.0000000E+00
   4.944000      0.0000000E+00
   4.956000      0.0000000E+00
   4.968000      0.0000000E+00
   4.980000      0.0000000E+00
   4.992000      0.0000000E+00
   5.004000      0.0000000E+00
   5.016000      0.0000000E+00
   5.028000      0.0000000E+00
   5.040000      0.0000000E+00
   5.052000      0.0000000E+00
   5.064000      0.0000000E+00
   5.076000      0.0000000E+00
   5.088000      0.0000000E+00
   5.100000      0.0000000E+00
   5.112000      0.0000000E+00
   5.124000      0.0000000E+00
   5.136000      0.0000000E+00
   5.148000      0.0000000E+00
   5.160000      0.0000000E+00
   5.172000      0.0000000E+00
   5.184000      0.0000000E+00
   5.196000      0.0000000E+00
   5.208000      0.0000000E+00
   5.220000      0.0000000E+00
   5.232000      0.0000000E+00
   5.244000      0.0000000E+00
   5.256000      0.0000000E+00
   5.268000      0.0000000E+00
   5.280000      0.0000000E+00
   5.292000      0.0000000E+00
   5.304000      0.0000000E+00
   5.316000      0.0000000E+00
   5.328000      0.0000000E+00
   5.340000      0.0000000E+00
   5.352000      0.0000000E+00
   5.364000      0.0000000E+00
   5.376000      0.0000000E+00
   5.388000      0.0000000E+00
   5.400000      0.0000000E+00
   5.412000      0.0000000E+00
   5.424000      0.0000000E+00
   5.436000      0.0000000E+00
   5.448000      0.0000000E+00
   5.460000      0.0000000E+00
   5.472000      0.0000000E+00
   5.484000      0.0000000E+00
   5.496000      0.0000000E+00
   5.508000      0.0000000E+00
   5.520000      0.0000000E+00
   5.532000      0.0000000E+00
   5.544000      0.0000000E+00
   5.556000      0.0000000E+00
   5.568000      1.3964615E-38
   5.580000      1.4647030E-38
   5.592000      1.2570582E-38
   5.604000      0.0000000E+00
   5.616000      0.0000000E+00
   5.628000      0.0000000E+00
   5.640000     -1.3468028E-38
   5.652000     -2.0870987E-38
   5.664000     -2.9165578E-38
   5.676000     -3.3966729E-38
   5.688000     -3.6689780E-38
   5.700000     -5.1977972E-38
   5.712000     -7.3877537E-38
   5.724000     -6.0911709E-38
   5.736000      0.0000000E+00
   5.748000      8.8302957E-38
   5.760000      1.6196328E-37
   5.772000      1.8228046E-37
   5.784000      9.5424569E-38
   5.796000     -7.4082255E-38
   5.808000     -2.8707328E-37
   5.820000     -4.3719911E-37
   5.832000     -4.8095048E-37
   5.844000     -3.5334460E-37
   5.856000     -8.2950518E-38
   5.868000      2.4089022E-37
   5.880000      5.3013628E-37
   5.892000      7.8225951E-37
   5.904000      8.5121451E-37
   5.916000      6.3638151E-37
   5.928000      2.3755722E-37
   5.940000     -2.9308774E-37
   5.952000     -8.2195460E-37
   5.964000     -1.2535427E-36
   5.976000     -1.4640119E-36
   5.988000     -1.3540317E-36
   6.000000     -8.5807016E-37
   6.012000      0.0000000E+00
   6.024000      1.0819044E-36
   6.036000      2.3263983E-36
   6.048000      3.1875096E-36
   6.060000      3.4592405E-36
   6.072000      2.7313737E-36
   6.084000      7.3452025E-37
   6.096000     -2.6974517E-36
   6.108000     -7.3761546E-36
   6.120000     -1.2983225E-35
   6.132000     -1.8697490E-35
   6.144000     -2.3385192E-35
   6.156000     -2.5829083E-35
   6.168000     -2.4835794E-35
   6.180000     -1.9392223E-35
   6.192000     -8.9132986E-36
   6.204000      6.5892672E-36
   6.216000      2.6274922E-35
   6.228000      4.8559970E-35
   6.240000      7.0907679E-35
   6.252000      9.0324888E-35
   6.264000      1.0338585E-34
   6.276000      1.0668916E-34
   6.288000      9.7233931E-35
   6.300000      7.2879433E-35
   6.312000      3.2697500E-35
   6.324000     -2.2667603E-35
   6.336000     -9.0745828E-35
   6.348000     -1.6720112E-34
   6.360000     -2.4581853E-34
   6.372000     -3.1873972E-34
   6.384000     -3.7692805E-34
   6.396000     -4.1072186E-34
   6.408000     -4.1065326E-34
   6.420000     -3.6840140E-34
   6.432000     -2.7784432E-34
   6.444000     -1.3613321E-34
   6.456000      5.5281106E-35
   6.468000      2.8983792E-34
   6.480000      5.5533912E-34
   6.492000      8.3381736E-34
   6.504000      1.1019124E-33
   6.516000      1.3317386E-33
   6.528000      1.4923640E-33
   6.540000      1.5518656E-33
   6.552000      1.4799400E-33
   6.564000      1.2509992E-33
   6.576000      8.4764227E-34
   6.588000      2.6422884E-34
   6.600000     -4.8976123E-34
   6.612000     -1.3869041E-33
   6.624000     -2.3800229E-33
   6.636000     -3.4017602E-33
   6.648000     -4.3659590E-33
   6.660000     -5.1709743E-33
   6.672000     -5.7051990E-33
   6.684000     -5.8547373E-33
   6.696000     -5.5130432E-33
   6.708000     -4.5921341E-33
   6.720000     -3.0347559E-33
   6.732000     -8.2664289E-34
   6.744000      1.9921990E-33
   6.756000      5.3184199E-33
   6.768000      8.9797813E-33
   6.780000      1.2734423E-32
   6.792000      1.6276068E-32
   6.804000      1.9246013E-32
   6.816000      2.1252331E-32
   6.828000      2.1896155E-32
   6.840000      2.0804360E-32
   6.852000      1.7667203E-32
   6.864000      1.2278778E-32
   6.876000      4.5775157E-33
   6.888000     -5.3167099E-33
   6.900000     -1.7072655E-32
   6.912000     -3.0128952E-32
   6.924000     -4.3690418E-32
   6.936000     -5.6742805E-32
   6.948000     -6.8088624E-32
   6.960000     -7.6405370E-32
   6.972000     -8.0326213E-32
   6.984000     -7.8541149E-32
   6.996000     -6.9914807E-32
   7.008000     -5.3615120E-32
   7.020000     -2.9244848E-32
   7.032000      3.0336745E-33
   7.044000      4.2391644E-32
   7.056000      8.7256711E-32
   7.068000      1.3527766E-31
   7.080000      1.8334215E-31
   7.092000      2.2765677E-31
   7.104000      2.6389634E-31
   7.116000      2.8742487E-31
   7.128000      2.9358663E-31
   7.140000      2.7805947E-31
   7.152000      2.3725720E-31
   7.164000      1.6876110E-31
   7.176000      7.1754426E-32
   7.188000     -5.2571358E-32
   7.200000     -2.0067457E-31
   7.212000     -3.6642414E-31
   7.224000     -5.4100284E-31
   7.236000     -7.1298975E-31
   7.248000     -8.6865431E-31
   7.260000     -9.9248643E-31
   7.272000     -1.0679727E-30
   7.284000     -1.0786183E-30
   7.296000     -1.0091883E-30
   7.308000     -8.4712997E-31
   7.320000     -5.8410695E-31
   7.332000     -2.1755845E-31
   7.344000      2.4782677E-31
   7.356000      7.9885026E-31
   7.368000      1.4128994E-30
   7.380000      2.0575453E-30
   7.392000      2.6907880E-30
   7.404000      3.2620781E-30
   7.416000      3.7142089E-30
   7.428000      3.9861472E-30
   7.440000      4.0167883E-30
   7.452000      3.7495753E-30
   7.464000      3.1378229E-30
   7.476000      2.1505000E-30
   7.488000      7.7814157E-31
   7.500000     -9.6154262E-31
   7.512000     -3.0188576E-30
   7.524000     -5.3086709E-30
   7.536000     -7.7088950E-30
   7.548000     -1.0061471E-29
   7.560000     -1.2176354E-29
   7.572000     -1.3838879E-29
   7.584000     -1.4820731E-29
   7.596000     -1.4894443E-29
   7.608000     -1.3851172E-29
   7.620000     -1.1521038E-29
   7.632000     -7.7950593E-30
   7.644000     -2.6473171E-30
   7.656000      3.8443514E-30
   7.668000      1.1481099E-29
   7.680000      1.9931381E-29
   7.692000      2.8727054E-29
   7.704000      3.7269269E-29
   7.716000      4.4846010E-29
   7.728000      5.0662333E-29
   7.740000      5.3883987E-29
   7.752000      5.3693747E-29
   7.764000      4.9358933E-29
   7.776000      4.0307249E-29
   7.788000      2.6206731E-29
   7.800000      7.0443912E-30
   7.812000     -1.6802985E-29
   7.824000     -4.4513236E-29
   7.836000     -7.4786159E-29
   7.848000     -1.0584137E-28
   7.860000     -1.3545363E-28
   7.872000     -1.6103075E-28
   7.884000     -1.7973732E-28
   7.896000     -1.8866418E-28
   7.908000     -1.8504029E-28
   7.920000     -1.6647877E-28
   7.932000     -1.3124559E-28
   7.944000     -7.8533928E-29
   7.956000     -8.7237412E-30
   7.968000      7.6396964E-29
   7.980000      1.7347501E-28
   7.992000      2.7752499E-28
   8.004000      3.8197645E-28
   8.016000      4.7885585E-28
   8.028000      5.5911634E-28
   8.040000      6.1312143E-28
   8.052000      6.3127496E-28
   8.064000      6.0477903E-28
   8.076000      5.2648593E-28
   8.088000      3.9179682E-28
   8.100000      1.9954480E-28
   8.112000     -4.7209057E-29
   8.124000     -3.4054866E-28
   8.136000     -6.6732842E-28
   8.148000     -1.0091320E-27
   8.160000     -1.3426363E-27
   8.172000     -1.6404339E-27
   8.184000     -1.8723417E-27
   8.196000     -2.0071936E-27
   8.208000     -2.0150699E-27
   8.220000     -1.8698806E-27
   8.232000     -1.5521688E-27
   8.244000     -1.0519562E-27
   8.256000     -3.7141995E-28
   8.268000      4.7284782E-28
   8.280000      1.4482543E-27
   8.292000      2.5055561E-27
   8.304000      3.5793805E-27
   8.316000      4.5901108E-27
   8.328000      5.4472594E-27
   8.340000      6.0543557E-27
   8.352000      6.3152710E-27
   8.364000      6.1417640E-27
   8.376000      5.4619019E-27
   8.388000      4.2288668E-27
   8.400000      2.4295344E-27
   8.412000      9.2109947E-29
   8.424000     -2.7079578E-27
   8.436000     -5.8445919E-27
   8.448000     -9.1409866E-27
   8.460000     -1.2373442E-26
   8.472000     -1.5279610E-26
   8.484000     -1.7571361E-26
   8.496000     -1.8952180E-26
   8.508000     -1.9138585E-26
   8.520000     -1.7884739E-26
   8.532000     -1.5008874E-26
   8.544000     -1.0419883E-26
   8.556000     -4.1419904E-27
   8.568000      3.6647724E-27
   8.580000      1.2690726E-26
   8.592000      2.2471681E-26
   8.604000      3.2395189E-26
   8.616000      4.1719578E-26
   8.628000      4.9606729E-26
   8.640000      5.5168735E-26
   8.652000      5.7527435E-26
   8.664000      5.5884718E-26
   8.676000      4.9600101E-26
   8.688000      3.8271020E-26
   8.700000      2.1809987E-26
   8.712000      5.1205051E-28
   8.724000     -2.4894631E-26
   8.736000     -5.3222288E-26
   8.748000     -8.2827844E-26
   8.760000     -1.1165360E-25
   8.772000     -1.3730817E-25
   8.784000     -1.5718902E-25
   8.796000     -1.6864517E-25
   8.808000     -1.6917496E-25
   8.820000     -1.5665004E-25
   8.832000     -1.2955337E-25
   8.844000     -8.7215063E-26
   8.856000     -3.0027152E-26
   8.868000      4.0383371E-26
   8.880000      1.2104520E-25
   8.892000      2.0761752E-25
   8.904000      2.9446738E-25
   8.916000      3.7486328E-25
   8.928000      4.4129175E-25
   8.940000      4.8589636E-25
   8.952000      5.0102770E-25
   8.964000      4.7988258E-25
   8.976000      4.1719954E-25
   8.988000      3.0996650E-25
   9.000000      1.5808812E-25
   9.012000     -3.5048689E-26
   9.024000     -2.6217378E-25
   9.036000     -5.1196141E-25
   9.048000     -7.6914313E-25
   9.060000     -1.0149526E-24
   9.072000     -1.2279303E-24
   9.084000     -1.3850944E-24
   9.096000     -1.4634548E-24
   9.108000     -1.4418190E-24
   9.120000     -1.3028007E-24
   9.132000     -1.0349144E-24
   9.144000     -6.3460596E-25
   9.156000     -1.0804918E-25
   9.168000      5.2748052E-25
   9.180000      1.2428415E-24
   9.192000      1.9970481E-24
   9.204000      2.7382283E-24
   9.216000      3.4056182E-24
   9.228000      3.9326369E-24
   9.240000      4.2510022E-24
   9.252000      4.2957685E-24
   9.264000      4.0110536E-24
   9.276000      3.3561567E-24
   9.288000      2.3116366E-24
   9.300000      8.8488993E-25
   9.312000     -8.8531818E-25
   9.324000     -2.9259190E-24
   9.336000     -5.1287287E-24
   9.348000     -7.3522318E-24
   9.360000     -9.4262993E-24
   9.372000     -1.1160040E-23
   9.384000     -1.2352745E-23
   9.396000     -1.2807669E-23
   9.408000     -1.2348086E-23
   9.420000     -1.0834818E-23
   9.432000     -8.1841384E-24
   9.444000     -4.3847232E-24
   9.456000      4.8783523E-25
   9.468000      6.2605264E-24
   9.480000      1.2657990E-23
   9.492000      1.9304573E-23
   9.504000      2.5734498E-23
   9.516000      3.1410848E-23
   9.528000      3.5753533E-23
   9.540000      3.8175747E-23
   9.552000      3.8127623E-23
   9.564000      3.5145101E-23
   9.576000      2.8901185E-23
   9.588000      1.9256126E-23
   9.600000      6.3025103E-24
   9.612000     -9.5991301E-24
   9.624000     -2.7798540E-23
   9.636000     -4.7351944E-23
   9.648000     -6.7039735E-23
   9.660000     -8.5408121E-23
   9.672000     -1.0083579E-22
   9.684000     -1.1162500E-22
   9.696000     -1.1611463E-22
   9.708000     -1.1281037E-22
   9.720000     -1.0052547E-22
   9.732000     -7.8523290E-23
   9.744000     -4.6651325E-23
   9.756000     -5.4553274E-24
   9.768000      4.3738305E-23
   9.780000      9.8783472E-23
   9.792000      1.5672878E-22
   9.804000      2.1389336E-22
   9.816000      2.6600882E-22
   9.828000      3.0842795E-22
   9.840000      3.3639601E-22
   9.852000      3.4537489E-22
   9.864000      3.3140562E-22
   9.876000      2.9148888E-22
   9.888000      2.2395892E-22
   9.900000      1.2882289E-22
   9.912000      8.0357458E-24
   9.924000     -1.3431955E-22
   9.936000     -2.9197388E-22
   9.948000     -4.5655937E-22
   9.960000     -6.1785878E-22
   9.972000     -7.6422371E-22
   9.984000     -8.8315818E-22
   9.996000     -9.6205104E-22
   10.00800     -9.8902882E-22
   10.02000     -9.5388566E-22
   10.03200     -8.4903779E-22
   10.04400     -6.7043963E-22
   10.05600     -4.1839075E-22
   10.06800     -9.8164027E-23
   10.08000      2.7961545E-22
   10.09200      6.9890133E-22
   10.10400      1.1385150E-21
   10.11600      1.5728211E-21
   10.12800      1.9727987E-21
   10.14000      2.3074835E-21
   10.15200      2.5457390E-21
   10.16400      2.6582731E-21
   10.17600      2.6198020E-21
   10.18800      2.4112293E-21
   10.20000      2.0216997E-21
   10.21200      1.4503744E-21
   10.22400      7.0777287E-22
   10.23600     -1.8345701E-22
   10.24800     -1.1884605E-21
   10.26000     -2.2608744E-21
   10.27200     -3.3443447E-21
   10.28400     -4.3748577E-21
   10.29600     -5.2838181E-21
   10.30800     -6.0017584E-21
   10.32000     -6.4624988E-21
   10.33200     -6.6075458E-21
   10.34400     -6.3904573E-21
   10.35600     -5.7809052E-21
   10.36800     -4.7681320E-21
   10.38000     -3.3635454E-21
   10.39200     -1.6021939E-21
   10.40400      4.5705142E-22
   10.41600      2.7327329E-21
   10.42800      5.1234844E-21
   10.44000      7.5120940E-21
   10.45200      9.7707931E-21
   10.46400      1.1767519E-20
   10.47600      1.3372831E-20
   10.48800      1.4467085E-20
   10.50000      1.4947444E-20
   10.51200      1.4734282E-20
   10.52400      1.3776595E-20
   10.53600      1.2056027E-20
   10.54800      9.5892851E-21
   10.56000      6.4287354E-21
   10.57200      2.6611844E-21
   10.58400     -1.5950952E-21
   10.59600     -6.1948529E-21
   10.60800     -1.0971542E-20
   10.62000     -1.5743780E-20
   10.63200     -2.0322118E-20
   10.64400     -2.4515666E-20
   10.65600     -2.8138135E-20
   10.66800     -3.1012972E-20
   10.68000     -3.2977420E-20
   10.69200     -3.3885383E-20
   10.70400     -3.3609363E-20
   10.71600     -3.2041701E-20
   10.72800     -2.9095613E-20
   10.74000     -2.4706701E-20
   10.75200     -1.8835470E-20
   10.76400     -1.1471541E-20
   10.77600     -2.6400360E-21
   10.78800      7.5896366E-21
   10.80000      1.9092600E-20
   10.81200      3.1675402E-20
   10.82400      4.5061856E-20
   10.83600      5.8879162E-20
   10.84800      7.2646136E-20
   10.86000      8.5765595E-20
   10.87200      9.7523231E-20
   10.88400      1.0709556E-19
   10.89600      1.1356873E-19
   10.90800      1.1597046E-19
   10.92000      1.1331573E-19
   10.93200      1.0466652E-19
   10.94400      8.9204631E-20
   10.95600      6.6314695E-20
   10.96800      3.5673931E-20
   10.98000     -2.6570538E-21
   10.99200     -4.8148923E-20
   11.00400     -9.9731531E-20
   11.01600     -1.5574334E-19
   11.02800     -2.1391085E-19
   11.04000     -2.7136578E-19
   11.05200     -3.2470678E-19
   11.06400     -3.7011002E-19
   11.07600     -4.0349079E-19
   11.08800     -4.2071422E-19
   11.10000     -4.1785005E-19
   11.11200     -3.9146185E-19
   11.12400     -3.3891647E-19
   11.13600     -2.5869678E-19
   11.14800     -1.5069614E-19
   11.16000     -1.6471560E-20
   11.17200      1.4056862E-19
   11.18400      3.1506658E-19
   11.19600      4.9972788E-19
   11.20800      6.8546229E-19
   11.22000      8.6166401E-19
   11.23200      1.0166350E-18
   11.24400      1.1381447E-18
   11.25600      1.2141116E-18
   11.26800      1.2333781E-18
   11.28000      1.1865426E-18
   11.29200      1.0668034E-18
   11.30400      8.7075752E-19
   11.31600      5.9909952E-19
   11.32800      2.5715652E-19
   11.34000     -1.4479622E-19
   11.35200     -5.9149173E-19
   11.36400     -1.0629394E-18
   11.37600     -1.5350307E-18
   11.38800     -1.9804881E-18
   11.40000     -2.3701407E-18
   11.41200     -2.6744875E-18
   11.42400     -2.8654854E-18
   11.43600     -2.9184717E-18
   11.44800     -2.8141170E-18
   11.46000     -2.5402839E-18
   11.47200     -2.0936553E-18