 -0.1200000      0.0000000E+00
 -0.1080000      0.0000000E+00
 -9.6000001E-02  0.0000000E+00
 -8.3999999E-02  0.0000000E+00
 -7.1999997E-02  0.0000000E+00
 -5.9999999E-02  0.0000000E+00
 -4.8000000E-02  0.0000000E+00
 -3.5999998E-02  0.0000000E+00
 -2.4000000E-02  0.0000000E+00
 -1.2000000E-02  0.0000000E+00
  6.9388939E-18  0.0000000E+00
  1.2000000E-02  0.0000000E+00
  2.4000000E-02  0.0000000E+00
  3.5999998E-02  0.0000000E+00
  4.8000000E-02  0.0000000E+00
  5.9999999E-02  0.0000000E+00
  7.1999997E-02  0.0000000E+00
  8.3999999E-02  0.0000000E+00
  9.6000001E-02  0.0000000E+00
  0.1080000      0.0000000E+00
  0.1200000      0.0000000E+00
  0.1320000      0.0000000E+00
  0.1440000      0.0000000E+00
  0.1560000      0.0000000E+00
  0.1680000      0.0000000E+00
  0.1800000      0.0000000E+00
  0.1920000      0.0000000E+00
  0.2040000      0.0000000E+00
  0.2160000      0.0000000E+00
  0.2280000      0.0000000E+00
  0.2400000      0.0000000E+00
  0.2520000      0.0000000E+00
  0.2640000      0.0000000E+00
  0.2760000      0.0000000E+00
  0.2880000      0.0000000E+00
  0.3000000      0.0000000E+00
  0.3120000      0.0000000E+00
  0.3240000      0.0000000E+00
  0.3360000      0.0000000E+00
  0.3480000      0.0000000E+00
  0.3600000      0.0000000E+00
  0.3720000      0.0000000E+00
  0.3840000      0.0000000E+00
  0.3960000      0.0000000E+00
  0.4080000      0.0000000E+00
  0.4200000      0.0000000E+00
  0.4320000      0.0000000E+00
  0.4440000      0.0000000E+00
  0.4560000      0.0000000E+00
  0.4680000      0.0000000E+00
  0.4800000      0.0000000E+00
  0.4920000      0.0000000E+00
  0.5040000      0.0000000E+00
  0.5160000      0.0000000E+00
  0.5280000      0.0000000E+00
  0.5400000      0.0000000E+00
  0.5520000      0.0000000E+00
  0.5640000      0.0000000E+00
  0.5760000      0.0000000E+00
  0.5880000      0.0000000E+00
  0.6000000      0.0000000E+00
  0.6120000      0.0000000E+00
  0.6240000      0.0000000E+00
  0.6360000      0.0000000E+00
  0.6480000      0.0000000E+00
  0.6600000      0.0000000E+00
  0.6720000      0.0000000E+00
  0.6840000      0.0000000E+00
  0.6960000      0.0000000E+00
  0.7080000      0.0000000E+00
  0.7200000      0.0000000E+00
  0.7320000      0.0000000E+00
  0.7440000      0.0000000E+00
  0.7560000      0.0000000E+00
  0.7680000      0.0000000E+00
  0.7800000      0.0000000E+00
  0.7920000      0.0000000E+00
  0.8040000      0.0000000E+00
  0.8160000      0.0000000E+00
  0.8280000      0.0000000E+00
  0.8400000      0.0000000E+00
  0.8520000      0.0000000E+00
  0.8640000      0.0000000E+00
  0.8760000      0.0000000E+00
  0.8880000      0.0000000E+00
  0.9000000      0.0000000E+00
  0.9120000      0.0000000E+00
  0.9240000      0.0000000E+00
  0.9360000      0.0000000E+00
  0.9480000      0.0000000E+00
  0.9600000      0.0000000E+00
  0.9720000      0.0000000E+00
  0.9840000      0.0000000E+00
  0.9960000      0.0000000E+00
   1.008000      0.0000000E+00
   1.020000      0.0000000E+00
   1.032000      0.0000000E+00
   1.044000      0.0000000E+00
   1.056000      0.0000000E+00
   1.068000      0.0000000E+00
   1.080000      0.0000000E+00
   1.092000      0.0000000E+00
   1.104000      0.0000000E+00
   1.116000      0.0000000E+00
   1.128000      0.0000000E+00
   1.140000      0.0000000E+00
   1.152000      0.0000000E+00
   1.164000      0.0000000E+00
   1.176000      0.0000000E+00
   1.188000      0.0000000E+00
   1.200000      0.0000000E+00
   1.212000      0.0000000E+00
   1.224000      0.0000000E+00
   1.236000      0.0000000E+00
   1.248000      0.0000000E+00
   1.260000      0.0000000E+00
   1.272000      0.0000000E+00
   1.284000      0.0000000E+00
   1.296000      0.0000000E+00
   1.308000      0.0000000E+00
   1.320000      0.0000000E+00
   1.332000      0.0000000E+00
   1.344000      0.0000000E+00
   1.356000      0.0000000E+00
   1.368000      0.0000000E+00
   1.380000      0.0000000E+00
   1.392000      0.0000000E+00
   1.404000      0.0000000E+00
   1.416000      0.0000000E+00
   1.428000      0.0000000E+00
   1.440000      0.0000000E+00
   1.452000      0.0000000E+00
   1.464000      0.0000000E+00
   1.476000      0.0000000E+00
   1.488000      0.0000000E+00
   1.500000      0.0000000E+00
   1.512000      0.0000000E+00
   1.524000      0.0000000E+00
   1.536000      0.0000000E+00
   1.548000      0.0000000E+00
   1.560000      0.0000000E+00
   1.572000      0.0000000E+00
   1.584000      0.0000000E+00
   1.596000      0.0000000E+00
   1.608000      0.0000000E+00
   1.620000      0.0000000E+00
   1.632000      0.0000000E+00
   1.644000      0.0000000E+00
   1.656000      0.0000000E+00
   1.668000      0.0000000E+00
   1.680000      0.0000000E+00
   1.692000      0.0000000E+00
   1.704000      0.0000000E+00
   1.716000      0.0000000E+00
   1.728000      0.0000000E+00
   1.740000      0.0000000E+00
   1.752000      0.0000000E+00
   1.764000      0.0000000E+00
   1.776000      0.0000000E+00
   1.788000      0.0000000E+00
   1.800000      0.0000000E+00
   1.812000      0.0000000E+00
   1.824000      0.0000000E+00
   1.836000      0.0000000E+00
   1.848000      0.0000000E+00
   1.860000      0.0000000E+00
   1.872000      0.0000000E+00
   1.884000      0.0000000E+00
   1.896000      0.0000000E+00
   1.908000      0.0000000E+00
   1.920000      0.0000000E+00
   1.932000      0.0000000E+00
   1.944000      0.0000000E+00
   1.956000      0.0000000E+00
   1.968000      0.0000000E+00
   1.980000      0.0000000E+00
   1.992000      0.0000000E+00
   2.004000      0.0000000E+00
   2.016000      0.0000000E+00
   2.028000      0.0000000E+00
   2.040000      0.0000000E+00
   2.052000      0.0000000E+00
   2.064000      0.0000000E+00
   2.076000      0.0000000E+00
   2.088000      0.0000000E+00
   2.100000      0.0000000E+00
   2.112000      0.0000000E+00
   2.124000      0.0000000E+00
   2.136000      0.0000000E+00
   2.148000      0.0000000E+00
   2.160000      0.0000000E+00
   2.172000      0.0000000E+00
   2.184000      0.0000000E+00
   2.196000      0.0000000E+00
   2.208000      0.0000000E+00
   2.220000      0.0000000E+00
   2.232000      0.0000000E+00
   2.244000      0.0000000E+00
   2.256000      0.0000000E+00
   2.268000      0.0000000E+00
   2.280000      0.0000000E+00
   2.292000      0.0000000E+00
   2.304000      0.0000000E+00
   2.316000      0.0000000E+00
   2.328000      0.0000000E+00
   2.340000      0.0000000E+00
   2.352000      0.0000000E+00
   2.364000      0.0000000E+00
   2.376000      0.0000000E+00
   2.388000      0.0000000E+00
   2.400000      0.0000000E+00
   2.412000      0.0000000E+00
   2.424000      0.0000000E+00
   2.436000      0.0000000E+00
   2.448000      0.0000000E+00
   2.460000      0.0000000E+00
   2.472000      0.0000000E+00
   2.484000      0.0000000E+00
   2.496000      0.0000000E+00
   2.508000      0.0000000E+00
   2.520000      0.0000000E+00
   2.532000      0.0000000E+00
   2.544000      0.0000000E+00
   2.556000      0.0000000E+00
   2.568000      0.0000000E+00
   2.580000      0.0000000E+00
   2.592000      0.0000000E+00
   2.604000      0.0000000E+00
   2.616000      0.0000000E+00
   2.628000      0.0000000E+00
   2.640000      0.0000000E+00
   2.652000      0.0000000E+00
   2.664000      0.0000000E+00
   2.676000      0.0000000E+00
   2.688000      0.0000000E+00
   2.700000      0.0000000E+00
   2.712000      0.0000000E+00
   2.724000      0.0000000E+00
   2.736000      0.0000000E+00
   2.748000      0.0000000E+00
   2.760000      0.0000000E+00
   2.772000      0.0000000E+00
   2.784000      0.0000000E+00
   2.796000      0.0000000E+00
   2.808000      0.0000000E+00
   2.820000      0.0000000E+00
   2.832000      0.0000000E+00
   2.844000      0.0000000E+00
   2.856000      0.0000000E+00
   2.868000      0.0000000E+00
   2.880000      0.0000000E+00
   2.892000      0.0000000E+00
   2.904000      0.0000000E+00
   2.916000      0.0000000E+00
   2.928000      0.0000000E+00
   2.940000      0.0000000E+00
   2.952000      0.0000000E+00
   2.964000      0.0000000E+00
   2.976000      0.0000000E+00
   2.988000      0.0000000E+00
   3.000000      0.0000000E+00
   3.012000      0.0000000E+00
   3.024000      0.0000000E+00
   3.036000      0.0000000E+00
   3.048000      0.0000000E+00
   3.060000      0.0000000E+00
   3.072000      0.0000000E+00
   3.084000      0.0000000E+00
   3.096000      0.0000000E+00
   3.108000      0.0000000E+00
   3.120000      0.0000000E+00
   3.132000      0.0000000E+00
   3.144000      0.0000000E+00
   3.156000      0.0000000E+00
   3.168000      0.0000000E+00
   3.180000      0.0000000E+00
   3.192000      0.0000000E+00
   3.204000      0.0000000E+00
   3.216000      0.0000000E+00
   3.228000      0.0000000E+00
   3.240000      0.0000000E+00
   3.252000      0.0000000E+00
   3.264000      0.0000000E+00
   3.276000      0.0000000E+00
   3.288000      0.0000000E+00
   3.300000      0.0000000E+00
   3.312000      0.0000000E+00
   3.324000      0.0000000E+00
   3.336000      0.0000000E+00
   3.348000      0.0000000E+00
   3.360000      0.0000000E+00
   3.372000      0.0000000E+00
   3.384000      0.0000000E+00
   3.396000      0.0000000E+00
   3.408000      0.0000000E+00
   3.420000      0.0000000E+00
   3.432000      0.0000000E+00
   3.444000      0.0000000E+00
   3.456000      0.0000000E+00
   3.468000      0.0000000E+00
   3.480000      0.0000000E+00
   3.492000      0.0000000E+00
   3.504000      0.0000000E+00
   3.516000      0.0000000E+00
   3.528000      0.0000000E+00
   3.540000      0.0000000E+00
   3.552000      0.0000000E+00
   3.564000      0.0000000E+00
   3.576000      0.0000000E+00
   3.588000      0.0000000E+00
   3.600000      0.0000000E+00
   3.612000      0.0000000E+00
   3.624000      0.0000000E+00
   3.636000      0.0000000E+00
   3.648000      0.0000000E+00
   3.660000      0.0000000E+00
   3.672000      0.0000000E+00
   3.684000      0.0000000E+00
   3.696000      0.0000000E+00
   3.708000      0.0000000E+00
   3.720000      0.0000000E+00
   3.732000      0.0000000E+00
   3.744000      0.0000000E+00
   3.756000      0.0000000E+00
   3.768000      0.0000000E+00
   3.780000      0.0000000E+00
   3.792000      0.0000000E+00
   3.804000      0.0000000E+00
   3.816000      0.0000000E+00
   3.828000      0.0000000E+00
   3.840000      0.0000000E+00
   3.852000      0.0000000E+00
   3.864000      0.0000000E+00
   3.876000      0.0000000E+00
   3.888000      0.0000000E+00
   3.900000      0.0000000E+00
   3.912000      0.0000000E+00
   3.924000      0.0000000E+00
   3.936000      0.0000000E+00
   3.948000      0.0000000E+00
   3.960000      0.0000000E+00
   3.972000      0.0000000E+00
   3.984000      0.0000000E+00
   3.996000      0.0000000E+00
   4.008000      0.0000000E+00
   4.020000      0.0000000E+00
   4.032000      0.0000000E+00
   4.044000      0.0000000E+00
   4.056000      0.0000000E+00
   4.068000      0.0000000E+00
   4.080000      0.0000000E+00
   4.092000      0.0000000E+00
   4.104000      0.0000000E+00
   4.116000      0.0000000E+00
   4.128000      0.0000000E+00
   4.140000      0.0000000E+00
   4.152000      0.0000000E+00
   4.164000      0.0000000E+00
   4.176000      0.0000000E+00
   4.188000      0.0000000E+00
   4.200000      0.0000000E+00
   4.212000      0.0000000E+00
   4.224000      0.0000000E+00
   4.236000      0.0000000E+00
   4.248000      0.0000000E+00
   4.260000      0.0000000E+00
   4.272000      0.0000000E+00
   4.284000      0.0000000E+00
   4.296000      0.0000000E+00
   4.308000      0.0000000E+00
   4.320000      0.0000000E+00
   4.332000      0.0000000E+00
   4.344000      0.0000000E+00
   4.356000      0.0000000E+00
   4.368000      0.0000000E+00
   4.380000      0.0000000E+00
   4.392000      0.0000000E+00
   4.404000      0.0000000E+00
   4.416000      0.0000000E+00
   4.428000      0.0000000E+00
   4.440000      0.0000000E+00
   4.452000      0.0000000E+00
   4.464000      0.0000000E+00
   4.476000      0.0000000E+00
   4.488000      0.0000000E+00
   4.500000      0.0000000E+00
   4.512000      0.0000000E+00
   4.524000      0.0000000E+00
   4.536000      0.0000000E+00
   4.548000      0.0000000E+00
   4.560000      0.0000000E+00
   4.572000      0.0000000E+00
   4.584000      0.0000000E+00
   4.596000      0.0000000E+00
   4.608000      0.0000000E+00
   4.620000      0.0000000E+00
   4.632000      0.0000000E+00
   4.644000      0.0000000E+00
   4.656000      0.0000000E+00
   4.668000      0.0000000E+00
   4.680000      0.0000000E+00
   4.692000      0.0000000E+00
   4.704000      0.0000000E+00
   4.716000      0.0000000E+00
   4.728000      0.0000000E+00
   4.740000      0.0000000E+00
   4.752000      0.0000000E+00
   4.764000      0.0000000E+00
   4.776000      0.0000000E+00
   4.788000      0.0000000E+00
   4.800000      0.0000000E+00
   4.812000      0.0000000E+00
   4.824000      0.0000000E+00
   4.836000      0.0000000E+00
   4.848000      0.0000000E+00
   4.860000      0.0000000E+00
   4.872000      0.0000000E+00
   4.884000      0.0000000E+00
   4.896000      0.0000000E+00
   4.908000      0.0000000E+00
   4.920000      0.0000000E+00
   4.932000      0.0000000E+00
   4.944000      0.0000000E+00
   4.956000      0.0000000E+00
   4.968000      0.0000000E+00
   4.980000      0.0000000E+00
   4.992000      0.0000000E+00
   5.004000      0.0000000E+00
   5.016000      0.0000000E+00
   5.028000      0.0000000E+00
   5.040000      0.0000000E+00
   5.052000      0.0000000E+00
   5.064000      0.0000000E+00
   5.076000      0.0000000E+00
   5.088000      0.0000000E+00
   5.100000      0.0000000E+00
   5.112000      0.0000000E+00
   5.124000      0.0000000E+00
   5.136000      0.0000000E+00
   5.148000      0.0000000E+00
   5.160000      0.0000000E+00
   5.172000      0.0000000E+00
   5.184000      0.0000000E+00
   5.196000      0.0000000E+00
   5.208000      0.0000000E+00
   5.220000      0.0000000E+00
   5.232000      0.0000000E+00
   5.244000      0.0000000E+00
   5.256000      0.0000000E+00
   5.268000      0.0000000E+00
   5.280000      0.0000000E+00
   5.292000      0.0000000E+00
   5.304000      0.0000000E+00
   5.316000      0.0000000E+00
   5.328000      0.0000000E+00
   5.340000      0.0000000E+00
   5.352000      0.0000000E+00
   5.364000      0.0000000E+00
   5.376000      0.0000000E+00
   5.388000      0.0000000E+00
   5.400000      0.0000000E+00
   5.412000      0.0000000E+00
   5.424000      0.0000000E+00
   5.436000      0.0000000E+00
   5.448000      0.0000000E+00
   5.460000      0.0000000E+00
   5.472000      0.0000000E+00
   5.484000      0.0000000E+00
   5.496000      0.0000000E+00
   5.508000      0.0000000E+00
   5.520000      0.0000000E+00
   5.532000      0.0000000E+00
   5.544000      0.0000000E+00
   5.556000      0.0000000E+00
   5.568000      0.0000000E+00
   5.580000      0.0000000E+00
   5.592000      0.0000000E+00
   5.604000      0.0000000E+00
   5.616000      0.0000000E+00
   5.628000      0.0000000E+00
   5.640000      0.0000000E+00
   5.652000      0.0000000E+00
   5.664000      0.0000000E+00
   5.676000      0.0000000E+00
   5.688000      0.0000000E+00
   5.700000      0.0000000E+00
   5.712000      0.0000000E+00
   5.724000      0.0000000E+00
   5.736000      0.0000000E+00
   5.748000      0.0000000E+00
   5.760000      0.0000000E+00
   5.772000      0.0000000E+00
   5.784000      0.0000000E+00
   5.796000      0.0000000E+00
   5.808000      0.0000000E+00
   5.820000      0.0000000E+00
   5.832000      0.0000000E+00
   5.844000      0.0000000E+00
   5.856000      0.0000000E+00
   5.868000      0.0000000E+00
   5.880000      0.0000000E+00
   5.892000      0.0000000E+00
   5.904000      0.0000000E+00
   5.916000      0.0000000E+00
   5.928000      0.0000000E+00
   5.940000      0.0000000E+00
   5.952000      0.0000000E+00
   5.964000      0.0000000E+00
   5.976000      0.0000000E+00
   5.988000      0.0000000E+00
   6.000000      0.0000000E+00
   6.012000      0.0000000E+00
   6.024000      0.0000000E+00
   6.036000      0.0000000E+00
   6.048000      0.0000000E+00
   6.060000      0.0000000E+00
   6.072000      0.0000000E+00
   6.084000      0.0000000E+00
   6.096000      0.0000000E+00
   6.108000      0.0000000E+00
   6.120000      0.0000000E+00
   6.132000      0.0000000E+00
   6.144000      0.0000000E+00
   6.156000      0.0000000E+00
   6.168000      0.0000000E+00
   6.180000      0.0000000E+00
   6.192000      0.0000000E+00
   6.204000      0.0000000E+00
   6.216000      0.0000000E+00
   6.228000      0.0000000E+00
   6.240000      0.0000000E+00
   6.252000      0.0000000E+00
   6.264000      0.0000000E+00
   6.276000      0.0000000E+00
   6.288000      0.0000000E+00
   6.300000      0.0000000E+00
   6.312000      0.0000000E+00
   6.324000      0.0000000E+00
   6.336000      0.0000000E+00
   6.348000      0.0000000E+00
   6.360000      0.0000000E+00
   6.372000      0.0000000E+00
   6.384000      0.0000000E+00
   6.396000      0.0000000E+00
   6.408000      0.0000000E+00
   6.420000      0.0000000E+00
   6.432000      0.0000000E+00
   6.444000      0.0000000E+00
   6.456000      0.0000000E+00
   6.468000      0.0000000E+00
   6.480000      0.0000000E+00
   6.492000      0.0000000E+00
   6.504000      0.0000000E+00
   6.516000      0.0000000E+00
   6.528000      0.0000000E+00
   6.540000      0.0000000E+00
   6.552000      0.0000000E+00
   6.564000      0.0000000E+00
   6.576000      0.0000000E+00
   6.588000      0.0000000E+00
   6.600000      0.0000000E+00
   6.612000      0.0000000E+00
   6.624000      0.0000000E+00
   6.636000      0.0000000E+00
   6.648000      0.0000000E+00
   6.660000      0.0000000E+00
   6.672000      0.0000000E+00
   6.684000      0.0000000E+00
   6.696000      0.0000000E+00
   6.708000      0.0000000E+00
   6.720000      0.0000000E+00
   6.732000      0.0000000E+00
   6.744000      0.0000000E+00
   6.756000      0.0000000E+00
   6.768000      0.0000000E+00
   6.780000      0.0000000E+00
   6.792000      0.0000000E+00
   6.804000      0.0000000E+00
   6.816000      0.0000000E+00
   6.828000      0.0000000E+00
   6.840000      0.0000000E+00
   6.852000      0.0000000E+00
   6.864000      0.0000000E+00
   6.876000      0.0000000E+00
   6.888000      0.0000000E+00
   6.900000      0.0000000E+00
   6.912000      0.0000000E+00
   6.924000      0.0000000E+00
   6.936000      0.0000000E+00
   6.948000      0.0000000E+00
   6.960000      0.0000000E+00
   6.972000      0.0000000E+00
   6.984000      0.0000000E+00
   6.996000      0.0000000E+00
   7.008000      0.0000000E+00
   7.020000      0.0000000E+00
   7.032000      0.0000000E+00
   7.044000      0.0000000E+00
   7.056000      0.0000000E+00
   7.068000      0.0000000E+00
   7.080000      0.0000000E+00
   7.092000      0.0000000E+00
   7.104000      0.0000000E+00
   7.116000      0.0000000E+00
   7.128000      0.0000000E+00
   7.140000      0.0000000E+00
   7.152000      0.0000000E+00
   7.164000      0.0000000E+00
   7.176000      0.0000000E+00
   7.188000      0.0000000E+00
   7.200000      0.0000000E+00
   7.212000      0.0000000E+00
   7.224000      0.0000000E+00
   7.236000      0.0000000E+00
   7.248000      0.0000000E+00
   7.260000      0.0000000E+00
   7.272000      0.0000000E+00
   7.284000      0.0000000E+00
   7.296000      0.0000000E+00
   7.308000      0.0000000E+00
   7.320000      0.0000000E+00
   7.332000      0.0000000E+00
   7.344000      0.0000000E+00
   7.356000      0.0000000E+00
   7.368000      0.0000000E+00
   7.380000      0.0000000E+00
   7.392000      0.0000000E+00
   7.404000      0.0000000E+00
   7.416000      0.0000000E+00
   7.428000      0.0000000E+00
   7.440000      0.0000000E+00
   7.452000      0.0000000E+00
   7.464000      0.0000000E+00
   7.476000      0.0000000E+00
   7.488000      0.0000000E+00
   7.500000      0.0000000E+00
   7.512000      0.0000000E+00
   7.524000      0.0000000E+00
   7.536000      0.0000000E+00
   7.548000      0.0000000E+00
   7.560000      0.0000000E+00
   7.572000      0.0000000E+00
   7.584000      0.0000000E+00
   7.596000      0.0000000E+00
   7.608000      0.0000000E+00
   7.620000      0.0000000E+00
   7.632000      0.0000000E+00
   7.644000      0.0000000E+00
   7.656000      0.0000000E+00
   7.668000      0.0000000E+00
   7.680000      0.0000000E+00
   7.692000      0.0000000E+00
   7.704000      0.0000000E+00
   7.716000      0.0000000E+00
   7.728000      2.2634776E-38
   7.740000      4.4261963E-38
   7.752000      6.5813529E-38
   7.764000      8.7340927E-38
   7.776000      9.2489544E-38
   7.788000      7.5704404E-38
   7.800000      3.6136318E-38
   7.812000     -2.1229228E-38
   7.824000     -7.8542773E-38
   7.836000     -1.3579175E-37
   7.848000     -1.7794103E-37
   7.860000     -1.9745271E-37
   7.872000     -1.9296954E-37
   7.884000     -1.6627093E-37
   7.896000     -1.2036468E-37
   7.908000     -7.3716645E-38
   7.920000     -3.1684356E-38
   7.932000      1.5155922E-38
   7.944000      5.0680896E-38
   7.956000      7.3072911E-38
   7.968000      7.5379891E-38
   7.980000      6.7567664E-38
   7.992000      4.6972354E-38
   8.004000      2.6201055E-38
   8.016000      0.0000000E+00
   8.028000     -1.5172464E-38
   8.040000     -3.0418269E-38
   8.052000     -4.1202931E-38
   8.064000     -4.7348339E-38
   8.076000     -5.1944514E-38
   8.088000     -5.6783377E-38
   8.100000     -5.7075453E-38
   8.112000     -6.9873041E-38
   8.124000     -7.6475387E-38
   8.136000     -7.0371880E-38
   8.148000     -4.8782069E-38
   8.160000      0.0000000E+00
   8.172000      3.0793074E-38
   8.184000      6.6734687E-38
   8.196000      9.8911908E-38
   8.208000      1.1170104E-37
   8.220000      1.0223661E-37
   8.232000      7.4945517E-38
   8.244000      3.4824422E-38
   8.256000      0.0000000E+00
   8.268000     -3.8539001E-38
   8.280000     -6.1866935E-38
   8.292000     -7.2218355E-38
   8.304000     -7.0373282E-38
   8.316000     -5.3337069E-38
   8.328000     -4.0709497E-38
   8.340000     -1.7326142E-38
   8.352000      0.0000000E+00
   8.364000      0.0000000E+00
   8.376000      0.0000000E+00
   8.388000     -6.0197865E-38
   8.400000     -1.1592941E-37
   8.412000     -1.6159453E-37
   8.424000     -1.9321170E-37
   8.436000     -1.8560624E-37
   8.448000     -1.4665418E-37
   8.460000     -9.0033908E-38
   8.472000     -3.5052694E-38
   8.484000      0.0000000E+00
   8.496000      0.0000000E+00
   8.508000     -1.2793793E-38
   8.520000     -6.7509414E-38
   8.532000     -1.1785710E-37
   8.544000     -1.3641275E-37
   8.556000     -8.8352412E-38
   8.568000      4.4126650E-38
   8.580000      2.3407601E-37
   8.592000      4.2088975E-37
   8.604000      5.5431045E-37
   8.616000      6.0267161E-37
   8.628000      5.6835971E-37
   8.640000      4.4865187E-37
   8.652000      2.9999986E-37
   8.664000      6.9564727E-38
   8.676000     -2.2875406E-37
   8.688000     -4.9042805E-37
   8.700000     -7.2388249E-37
   8.712000     -9.1394184E-37
   8.724000     -1.1534027E-36
   8.736000     -1.3133229E-36
   8.748000     -1.2881839E-36
   8.760000     -1.0298392E-36
   8.772000     -4.9272672E-37
   8.784000      4.2426277E-37
   8.796000      1.8084646E-36
   8.808000      3.7441647E-36
   8.820000      5.9597883E-36
   8.832000      8.2353546E-36
   8.844000      1.0118912E-35
   8.856000      1.1229873E-35
   8.868000      1.1123554E-35
   8.880000      9.2866565E-36
   8.892000      5.4700651E-36
   8.904000     -2.5791602E-37
   8.916000     -7.6543422E-36
   8.928000     -1.6439629E-35
   8.940000     -2.5963898E-35
   8.952000     -3.5535303E-35
   8.964000     -4.4122490E-35
   8.976000     -5.0713335E-35
   8.988000     -5.4202544E-35
   9.000000     -5.3609505E-35
   9.012000     -4.8136930E-35
   9.024000     -3.7271112E-35
   9.036000     -2.0835890E-35
   9.048000      9.2277715E-37
   9.060000      2.7258463E-35
   9.072000      5.6974036E-35
   9.084000      8.8427027E-35
   9.096000      1.1946012E-34
   9.108000      1.4750143E-34
   9.120000      1.6980103E-34
   9.132000      1.8346495E-34
   9.144000      1.8580088E-34
   9.156000      1.7440339E-34
   9.168000      1.4748595E-34
   9.180000      1.0408218E-34
   9.192000      4.4214378E-35
   9.204000     -3.0935900E-35
   9.216000     -1.1900251E-34
   9.228000     -2.1641535E-34
   9.240000     -3.1832881E-34
   9.252000     -4.1863234E-34
   9.264000     -5.1015918E-34
   9.276000     -5.8469319E-34
   9.288000     -6.3344429E-34
   9.300000     -6.4757924E-34
   9.312000     -6.1879221E-34
   9.324000     -5.4008965E-34
   9.336000     -4.0662563E-34
   9.348000     -2.1647015E-34
   9.360000      2.8648706E-35
   9.372000      3.2271223E-34
   9.384000      6.5500276E-34
   9.396000      1.0099053E-33
   9.408000      1.3670125E-33
   9.420000      1.7015182E-33
   9.432000      1.9850727E-33
   9.444000      2.1870502E-33
   9.456000      2.2762717E-33
   9.468000      2.2231566E-33
   9.480000      2.0022199E-33
   9.492000      1.5947829E-33
   9.504000      9.9172647E-34
   9.516000      1.9606771E-34
   9.528000     -7.7485135E-34
   9.540000     -1.8878076E-33
   9.552000     -3.0929725E-33
   9.564000     -4.3242114E-33
   9.576000     -5.5005803E-33
   9.588000     -6.5291115E-33
   9.600000     -7.3089741E-33
   9.612000     -7.7369231E-33
   9.624000     -7.7139848E-33
   9.636000     -7.1531586E-33
   9.648000     -5.9877258E-33
   9.660000     -4.1797942E-33
   9.672000     -1.7284943E-33
   9.684000      1.3228060E-33
   9.696000      4.8809714E-33
   9.708000      8.7999542E-33
   9.720000      1.2880710E-32
   9.732000      1.6874762E-32
   9.744000      2.0491871E-32
   9.756000      2.3412024E-32
   9.768000      2.5301758E-32
   9.780000      2.5834480E-32
   9.792000      2.4714160E-32
   9.804000      2.1701333E-32
   9.816000      1.6640142E-32
   9.828000      9.4846753E-33
   9.840000      3.2271331E-34
   9.852000     -1.0605213E-32
   9.864000     -2.2893650E-32
   9.876000     -3.5968987E-32
   9.888000     -4.9097075E-32
   9.900000     -6.1403117E-32
   9.912000     -7.1904784E-32
   9.924000     -7.9558692E-32
   9.936000     -8.3319563E-32
   9.948000     -8.2210290E-32
   9.960000     -7.5400275E-32
   9.972000     -6.2288164E-32
   9.984000     -4.2584152E-32
   9.996000     -1.6386346E-32
   10.00800      1.5755121E-32
   10.02000      5.2792644E-32
   10.03200      9.3160843E-32
   10.04400      1.3478723E-31
   10.05600      1.7513865E-31
   10.06800      2.1130684E-31
   10.08000      2.4013438E-31
   10.09200      2.5837968E-31
   10.10400      2.6291720E-31
   10.11600      2.5096553E-31
   10.12800      2.2033334E-31
   10.14000      1.6966982E-31
   10.15200      9.8703675E-32
   10.16400      8.4531746E-33
   10.17600     -9.8612303E-32
   10.18800     -2.1847790E-31
   10.20000     -3.4557430E-31
   10.21200     -4.7286978E-31
   10.22400     -5.9207455E-31
   10.23600     -6.9396343E-31
   10.24800     -7.6881647E-31
   10.26000     -8.0696897E-31
   10.27200     -7.9945343E-31
   10.28400     -7.3870740E-31
   10.29600     -6.1931273E-31
   10.30800     -4.3872214E-31
   10.32000     -1.9792457E-31
   10.33200      9.8006113E-32
   10.34400      4.3953342E-31
   10.35600      8.1250715E-31
   10.36800      1.1982862E-30
   10.38000      1.5741747E-30
   10.39200      1.9141963E-30
   10.40400      2.1902136E-30
   10.41600      2.3733793E-30
   10.42800      2.4358801E-30
   10.44000      2.3529101E-30
   10.45200      2.1047864E-30
   10.46400      1.6790889E-30
   10.47600      1.0726975E-30
   10.48800      2.9357031E-31
   10.50000     -6.3788977E-31
   10.51200     -1.6880419E-30
   10.52400     -2.8099314E-30
   10.53600     -3.9440589E-30
   10.54800     -5.0200842E-30
   10.56000     -5.9595122E-30
   10.57200     -6.6793538E-30
   10.58400     -7.0966817E-30
   10.59600     -7.1339469E-30
   10.60800     -6.7248320E-30
   10.62000     -5.8203612E-30
   10.63200     -4.3949127E-30
   10.64400     -2.4517368E-30
   10.65600     -2.7543596E-32
   10.66800      2.8042872E-30
   10.68000      5.9323043E-30
   10.69200      9.2077793E-30
   10.70400      1.2448006E-29
   10.71600      1.5442302E-29
   10.72800      1.7960783E-29
   10.74000      1.9765780E-29
   10.75200      2.0625637E-29
   10.76400      2.0330368E-29
   10.77600      1.8708489E-29
   10.78800      1.5644177E-29
   10.80000      1.1093644E-29
   10.81200      5.0996567E-30
   10.82400     -2.1970988E-30
   10.83600     -1.0550998E-29
   10.84800     -1.9609954E-29
   10.86000     -2.8920378E-29
   10.87200     -3.7939351E-29
   10.88400     -4.6054396E-29
   10.89600     -5.2610779E-29
   10.90800     -5.6945933E-29
   10.92000     -5.8429790E-29
   10.93200     -5.6509601E-29
   10.94400     -5.0756993E-29
   10.95600     -4.0914769E-29
   10.96800     -2.6940344E-29
   10.98000     -9.0426661E-30
   10.99200      1.2290837E-29
   11.00400      3.6280467E-29
   11.01600      6.1856621E-29
   11.02800      8.7680711E-29
   11.04000      1.1218619E-28
   11.05200      1.3364038E-28
   11.06400      1.5022633E-28
   11.07600      1.6014293E-28
   11.08800      1.6171964E-28
   11.10000      1.5354112E-28
   11.11200      1.3457537E-28
   11.12400      1.0429800E-28
   11.13600      6.2804232E-29
   11.14800      1.0899748E-29
   11.16000     -4.9838655E-29
   11.17200     -1.1704094E-28
   11.18400     -1.8756763E-28
   11.19600     -2.5758514E-28
   11.20800     -3.2269587E-28
   11.22000     -3.7812331E-28
   11.23200     -4.1894932E-28
   11.24400     -4.4039653E-28
   11.25600     -4.3814502E-28
   11.26800     -4.0867001E-28
   11.28000     -3.4958115E-28
   11.29200     -2.5994370E-28
   11.30400     -1.4055866E-28
   11.31600      5.8216593E-30
   11.32800      1.7436607E-28
   11.34000      3.5814581E-28
   11.35200      5.4824249E-28
   11.36400      7.3399496E-28
   11.37600      9.0339076E-28
   11.38800      1.0435997E-27
   11.40000      1.1416376E-27
   11.41200      1.1851403E-27
   11.42400      1.1632130E-27
   11.43600      1.0673190E-27
   11.44800      8.9215363E-28
   11.46000      6.3645148E-28
   11.47200      3.0366499E-28