 -0.1200000      0.0000000E+00
 -0.1080000      0.0000000E+00
 -9.6000001E-02  0.0000000E+00
 -8.3999999E-02  0.0000000E+00
 -7.1999997E-02  0.0000000E+00
 -5.9999999E-02  0.0000000E+00
 -4.8000000E-02  0.0000000E+00
 -3.5999998E-02  0.0000000E+00
 -2.4000000E-02  0.0000000E+00
 -1.2000000E-02  0.0000000E+00
  6.9388939E-18  0.0000000E+00
  1.2000000E-02  0.0000000E+00
  2.4000000E-02  0.0000000E+00
  3.5999998E-02  0.0000000E+00
  4.8000000E-02  0.0000000E+00
  5.9999999E-02  0.0000000E+00
  7.1999997E-02  0.0000000E+00
  8.3999999E-02  0.0000000E+00
  9.6000001E-02  0.0000000E+00
  0.1080000      0.0000000E+00
  0.1200000      0.0000000E+00
  0.1320000      0.0000000E+00
  0.1440000      0.0000000E+00
  0.1560000      0.0000000E+00
  0.1680000      0.0000000E+00
  0.1800000      0.0000000E+00
  0.1920000      0.0000000E+00
  0.2040000      0.0000000E+00
  0.2160000      0.0000000E+00
  0.2280000      0.0000000E+00
  0.2400000      0.0000000E+00
  0.2520000      0.0000000E+00
  0.2640000      0.0000000E+00
  0.2760000      0.0000000E+00
  0.2880000      0.0000000E+00
  0.3000000      0.0000000E+00
  0.3120000      0.0000000E+00
  0.3240000      0.0000000E+00
  0.3360000      0.0000000E+00
  0.3480000      0.0000000E+00
  0.3600000      0.0000000E+00
  0.3720000      0.0000000E+00
  0.3840000      0.0000000E+00
  0.3960000      0.0000000E+00
  0.4080000      0.0000000E+00
  0.4200000      0.0000000E+00
  0.4320000      0.0000000E+00
  0.4440000      0.0000000E+00
  0.4560000      0.0000000E+00
  0.4680000      0.0000000E+00
  0.4800000      0.0000000E+00
  0.4920000      0.0000000E+00
  0.5040000      0.0000000E+00
  0.5160000      0.0000000E+00
  0.5280000      0.0000000E+00
  0.5400000      0.0000000E+00
  0.5520000      0.0000000E+00
  0.5640000      0.0000000E+00
  0.5760000      0.0000000E+00
  0.5880000      0.0000000E+00
  0.6000000      0.0000000E+00
  0.6120000      0.0000000E+00
  0.6240000      0.0000000E+00
  0.6360000      0.0000000E+00
  0.6480000      0.0000000E+00
  0.6600000      0.0000000E+00
  0.6720000      0.0000000E+00
  0.6840000      0.0000000E+00
  0.6960000      0.0000000E+00
  0.7080000      0.0000000E+00
  0.7200000      0.0000000E+00
  0.7320000      0.0000000E+00
  0.7440000      0.0000000E+00
  0.7560000      0.0000000E+00
  0.7680000      0.0000000E+00
  0.7800000      0.0000000E+00
  0.7920000      0.0000000E+00
  0.8040000      0.0000000E+00
  0.8160000      0.0000000E+00
  0.8280000      0.0000000E+00
  0.8400000      0.0000000E+00
  0.8520000      0.0000000E+00
  0.8640000      0.0000000E+00
  0.8760000      0.0000000E+00
  0.8880000      0.0000000E+00
  0.9000000      0.0000000E+00
  0.9120000      0.0000000E+00
  0.9240000      0.0000000E+00
  0.9360000      0.0000000E+00
  0.9480000      0.0000000E+00
  0.9600000      0.0000000E+00
  0.9720000      0.0000000E+00
  0.9840000      0.0000000E+00
  0.9960000      0.0000000E+00
   1.008000      0.0000000E+00
   1.020000      0.0000000E+00
   1.032000      0.0000000E+00
   1.044000      0.0000000E+00
   1.056000      0.0000000E+00
   1.068000      0.0000000E+00
   1.080000      0.0000000E+00
   1.092000      0.0000000E+00
   1.104000      0.0000000E+00
   1.116000      0.0000000E+00
   1.128000      0.0000000E+00
   1.140000      0.0000000E+00
   1.152000      0.0000000E+00
   1.164000      0.0000000E+00
   1.176000      0.0000000E+00
   1.188000      0.0000000E+00
   1.200000      0.0000000E+00
   1.212000      0.0000000E+00
   1.224000      0.0000000E+00
   1.236000      0.0000000E+00
   1.248000      0.0000000E+00
   1.260000      0.0000000E+00
   1.272000      0.0000000E+00
   1.284000      0.0000000E+00
   1.296000      0.0000000E+00
   1.308000      0.0000000E+00
   1.320000      0.0000000E+00
   1.332000      0.0000000E+00
   1.344000      0.0000000E+00
   1.356000      0.0000000E+00
   1.368000      0.0000000E+00
   1.380000      0.0000000E+00
   1.392000      0.0000000E+00
   1.404000      0.0000000E+00
   1.416000      0.0000000E+00
   1.428000      0.0000000E+00
   1.440000      0.0000000E+00
   1.452000      0.0000000E+00
   1.464000      0.0000000E+00
   1.476000      0.0000000E+00
   1.488000      0.0000000E+00
   1.500000      0.0000000E+00
   1.512000      0.0000000E+00
   1.524000      0.0000000E+00
   1.536000      0.0000000E+00
   1.548000      0.0000000E+00
   1.560000      0.0000000E+00
   1.572000      0.0000000E+00
   1.584000      0.0000000E+00
   1.596000      0.0000000E+00
   1.608000      0.0000000E+00
   1.620000      0.0000000E+00
   1.632000      0.0000000E+00
   1.644000      0.0000000E+00
   1.656000      0.0000000E+00
   1.668000      0.0000000E+00
   1.680000      0.0000000E+00
   1.692000      0.0000000E+00
   1.704000      0.0000000E+00
   1.716000      0.0000000E+00
   1.728000      0.0000000E+00
   1.740000      0.0000000E+00
   1.752000      0.0000000E+00
   1.764000      0.0000000E+00
   1.776000      0.0000000E+00
   1.788000      0.0000000E+00
   1.800000      0.0000000E+00
   1.812000      0.0000000E+00
   1.824000      0.0000000E+00
   1.836000      0.0000000E+00
   1.848000      0.0000000E+00
   1.860000      0.0000000E+00
   1.872000      0.0000000E+00
   1.884000      0.0000000E+00
   1.896000      0.0000000E+00
   1.908000      0.0000000E+00
   1.920000      0.0000000E+00
   1.932000      0.0000000E+00
   1.944000      0.0000000E+00
   1.956000      0.0000000E+00
   1.968000      0.0000000E+00
   1.980000      0.0000000E+00
   1.992000      0.0000000E+00
   2.004000      0.0000000E+00
   2.016000      0.0000000E+00
   2.028000      0.0000000E+00
   2.040000      0.0000000E+00
   2.052000      0.0000000E+00
   2.064000      0.0000000E+00
   2.076000      0.0000000E+00
   2.088000      0.0000000E+00
   2.100000      0.0000000E+00
   2.112000      0.0000000E+00
   2.124000      0.0000000E+00
   2.136000      0.0000000E+00
   2.148000      0.0000000E+00
   2.160000      0.0000000E+00
   2.172000      0.0000000E+00
   2.184000      0.0000000E+00
   2.196000      0.0000000E+00
   2.208000      0.0000000E+00
   2.220000      0.0000000E+00
   2.232000      0.0000000E+00
   2.244000      0.0000000E+00
   2.256000      0.0000000E+00
   2.268000      0.0000000E+00
   2.280000      0.0000000E+00
   2.292000      0.0000000E+00
   2.304000      0.0000000E+00
   2.316000      0.0000000E+00
   2.328000      0.0000000E+00
   2.340000      0.0000000E+00
   2.352000      0.0000000E+00
   2.364000      0.0000000E+00
   2.376000      0.0000000E+00
   2.388000      0.0000000E+00
   2.400000      0.0000000E+00
   2.412000      0.0000000E+00
   2.424000      0.0000000E+00
   2.436000      0.0000000E+00
   2.448000      0.0000000E+00
   2.460000      0.0000000E+00
   2.472000      0.0000000E+00
   2.484000      0.0000000E+00
   2.496000      0.0000000E+00
   2.508000      0.0000000E+00
   2.520000      0.0000000E+00
   2.532000      0.0000000E+00
   2.544000      0.0000000E+00
   2.556000      0.0000000E+00
   2.568000      0.0000000E+00
   2.580000      0.0000000E+00
   2.592000      0.0000000E+00
   2.604000      0.0000000E+00
   2.616000      0.0000000E+00
   2.628000      0.0000000E+00
   2.640000      0.0000000E+00
   2.652000      0.0000000E+00
   2.664000      0.0000000E+00
   2.676000      0.0000000E+00
   2.688000      0.0000000E+00
   2.700000      0.0000000E+00
   2.712000      0.0000000E+00
   2.724000      0.0000000E+00
   2.736000      0.0000000E+00
   2.748000      0.0000000E+00
   2.760000      0.0000000E+00
   2.772000      0.0000000E+00
   2.784000      0.0000000E+00
   2.796000      0.0000000E+00
   2.808000      0.0000000E+00
   2.820000      0.0000000E+00
   2.832000      0.0000000E+00
   2.844000      0.0000000E+00
   2.856000      0.0000000E+00
   2.868000      0.0000000E+00
   2.880000      0.0000000E+00
   2.892000      0.0000000E+00
   2.904000      0.0000000E+00
   2.916000      0.0000000E+00
   2.928000      0.0000000E+00
   2.940000      0.0000000E+00
   2.952000      0.0000000E+00
   2.964000      0.0000000E+00
   2.976000      0.0000000E+00
   2.988000      0.0000000E+00
   3.000000      0.0000000E+00
   3.012000      0.0000000E+00
   3.024000      0.0000000E+00
   3.036000      0.0000000E+00
   3.048000      0.0000000E+00
   3.060000      0.0000000E+00
   3.072000      0.0000000E+00
   3.084000      0.0000000E+00
   3.096000      0.0000000E+00
   3.108000      0.0000000E+00
   3.120000      0.0000000E+00
   3.132000      0.0000000E+00
   3.144000      0.0000000E+00
   3.156000      0.0000000E+00
   3.168000      0.0000000E+00
   3.180000      0.0000000E+00
   3.192000      0.0000000E+00
   3.204000      0.0000000E+00
   3.216000      0.0000000E+00
   3.228000      0.0000000E+00
   3.240000      0.0000000E+00
   3.252000      0.0000000E+00
   3.264000      0.0000000E+00
   3.276000      0.0000000E+00
   3.288000      0.0000000E+00
   3.300000      0.0000000E+00
   3.312000      0.0000000E+00
   3.324000      0.0000000E+00
   3.336000      0.0000000E+00
   3.348000      0.0000000E+00
   3.360000      0.0000000E+00
   3.372000      0.0000000E+00
   3.384000      0.0000000E+00
   3.396000      0.0000000E+00
   3.408000      0.0000000E+00
   3.420000      0.0000000E+00
   3.432000      0.0000000E+00
   3.444000      0.0000000E+00
   3.456000      0.0000000E+00
   3.468000      0.0000000E+00
   3.480000      0.0000000E+00
   3.492000      0.0000000E+00
   3.504000      0.0000000E+00
   3.516000      0.0000000E+00
   3.528000      0.0000000E+00
   3.540000      0.0000000E+00
   3.552000      0.0000000E+00
   3.564000      0.0000000E+00
   3.576000      0.0000000E+00
   3.588000      0.0000000E+00
   3.600000      0.0000000E+00
   3.612000      0.0000000E+00
   3.624000      0.0000000E+00
   3.636000      0.0000000E+00
   3.648000      0.0000000E+00
   3.660000      0.0000000E+00
   3.672000      0.0000000E+00
   3.684000      0.0000000E+00
   3.696000      0.0000000E+00
   3.708000      0.0000000E+00
   3.720000      0.0000000E+00
   3.732000      0.0000000E+00
   3.744000      0.0000000E+00
   3.756000      0.0000000E+00
   3.768000      0.0000000E+00
   3.780000      0.0000000E+00
   3.792000      0.0000000E+00
   3.804000      0.0000000E+00
   3.816000      0.0000000E+00
   3.828000      0.0000000E+00
   3.840000      0.0000000E+00
   3.852000      0.0000000E+00
   3.864000      0.0000000E+00
   3.876000      0.0000000E+00
   3.888000      0.0000000E+00
   3.900000      0.0000000E+00
   3.912000      0.0000000E+00
   3.924000      0.0000000E+00
   3.936000      0.0000000E+00
   3.948000      0.0000000E+00
   3.960000      0.0000000E+00
   3.972000      0.0000000E+00
   3.984000      0.0000000E+00
   3.996000      0.0000000E+00
   4.008000      0.0000000E+00
   4.020000      0.0000000E+00
   4.032000      0.0000000E+00
   4.044000      0.0000000E+00
   4.056000      0.0000000E+00
   4.068000      0.0000000E+00
   4.080000      0.0000000E+00
   4.092000      0.0000000E+00
   4.104000      0.0000000E+00
   4.116000      0.0000000E+00
   4.128000      0.0000000E+00
   4.140000      0.0000000E+00
   4.152000      0.0000000E+00
   4.164000      0.0000000E+00
   4.176000      0.0000000E+00
   4.188000      0.0000000E+00
   4.200000      0.0000000E+00
   4.212000      0.0000000E+00
   4.224000      0.0000000E+00
   4.236000      0.0000000E+00
   4.248000      0.0000000E+00
   4.260000      0.0000000E+00
   4.272000      0.0000000E+00
   4.284000      0.0000000E+00
   4.296000      0.0000000E+00
   4.308000      0.0000000E+00
   4.320000      0.0000000E+00
   4.332000      0.0000000E+00
   4.344000      0.0000000E+00
   4.356000      0.0000000E+00
   4.368000      0.0000000E+00
   4.380000      0.0000000E+00
   4.392000      0.0000000E+00
   4.404000      0.0000000E+00
   4.416000      0.0000000E+00
   4.428000      0.0000000E+00
   4.440000      0.0000000E+00
   4.452000      0.0000000E+00
   4.464000      0.0000000E+00
   4.476000      0.0000000E+00
   4.488000      0.0000000E+00
   4.500000      0.0000000E+00
   4.512000      0.0000000E+00
   4.524000      0.0000000E+00
   4.536000      0.0000000E+00
   4.548000      0.0000000E+00
   4.560000      0.0000000E+00
   4.572000      0.0000000E+00
   4.584000      0.0000000E+00
   4.596000      0.0000000E+00
   4.608000      0.0000000E+00
   4.620000      0.0000000E+00
   4.632000      0.0000000E+00
   4.644000      0.0000000E+00
   4.656000      0.0000000E+00
   4.668000      0.0000000E+00
   4.680000      0.0000000E+00
   4.692000      0.0000000E+00
   4.704000      0.0000000E+00
   4.716000      0.0000000E+00
   4.728000      0.0000000E+00
   4.740000      0.0000000E+00
   4.752000      0.0000000E+00
   4.764000      0.0000000E+00
   4.776000      0.0000000E+00
   4.788000      0.0000000E+00
   4.800000      0.0000000E+00
   4.812000      0.0000000E+00
   4.824000      0.0000000E+00
   4.836000      0.0000000E+00
   4.848000      0.0000000E+00
   4.860000      0.0000000E+00
   4.872000      0.0000000E+00
   4.884000      0.0000000E+00
   4.896000      0.0000000E+00
   4.908000      0.0000000E+00
   4.920000      0.0000000E+00
   4.932000      0.0000000E+00
   4.944000      0.0000000E+00
   4.956000      0.0000000E+00
   4.968000      0.0000000E+00
   4.980000      0.0000000E+00
   4.992000      0.0000000E+00
   5.004000      0.0000000E+00
   5.016000      0.0000000E+00
   5.028000      0.0000000E+00
   5.040000      0.0000000E+00
   5.052000      0.0000000E+00
   5.064000      0.0000000E+00
   5.076000      0.0000000E+00
   5.088000      0.0000000E+00
   5.100000      0.0000000E+00
   5.112000      0.0000000E+00
   5.124000      0.0000000E+00
   5.136000      0.0000000E+00
   5.148000      0.0000000E+00
   5.160000      0.0000000E+00
   5.172000      0.0000000E+00
   5.184000      0.0000000E+00
   5.196000      0.0000000E+00
   5.208000      0.0000000E+00
   5.220000      0.0000000E+00
   5.232000      0.0000000E+00
   5.244000      0.0000000E+00
   5.256000      0.0000000E+00
   5.268000      0.0000000E+00
   5.280000      0.0000000E+00
   5.292000      0.0000000E+00
   5.304000      0.0000000E+00
   5.316000      0.0000000E+00
   5.328000      0.0000000E+00
   5.340000      0.0000000E+00
   5.352000      0.0000000E+00
   5.364000      0.0000000E+00
   5.376000      0.0000000E+00
   5.388000      0.0000000E+00
   5.400000      0.0000000E+00
   5.412000      0.0000000E+00
   5.424000      0.0000000E+00
   5.436000      0.0000000E+00
   5.448000      0.0000000E+00
   5.460000      0.0000000E+00
   5.472000      0.0000000E+00
   5.484000      0.0000000E+00
   5.496000      0.0000000E+00
   5.508000      0.0000000E+00
   5.520000      0.0000000E+00
   5.532000      0.0000000E+00
   5.544000      0.0000000E+00
   5.556000      0.0000000E+00
   5.568000      0.0000000E+00
   5.580000      0.0000000E+00
   5.592000      0.0000000E+00
   5.604000      0.0000000E+00
   5.616000      0.0000000E+00
   5.628000      0.0000000E+00
   5.640000      0.0000000E+00
   5.652000      0.0000000E+00
   5.664000      0.0000000E+00
   5.676000      0.0000000E+00
   5.688000      0.0000000E+00
   5.700000      0.0000000E+00
   5.712000      0.0000000E+00
   5.724000      0.0000000E+00
   5.736000      0.0000000E+00
   5.748000      0.0000000E+00
   5.760000      0.0000000E+00
   5.772000      0.0000000E+00
   5.784000      0.0000000E+00
   5.796000      0.0000000E+00
   5.808000      0.0000000E+00
   5.820000      0.0000000E+00
   5.832000      0.0000000E+00
   5.844000      0.0000000E+00
   5.856000      0.0000000E+00
   5.868000      0.0000000E+00
   5.880000      0.0000000E+00
   5.892000      0.0000000E+00
   5.904000      0.0000000E+00
   5.916000      0.0000000E+00
   5.928000      0.0000000E+00
   5.940000      0.0000000E+00
   5.952000      0.0000000E+00
   5.964000      0.0000000E+00
   5.976000      0.0000000E+00
   5.988000      0.0000000E+00
   6.000000      0.0000000E+00
   6.012000      0.0000000E+00
   6.024000      0.0000000E+00
   6.036000      0.0000000E+00
   6.048000      0.0000000E+00
   6.060000      0.0000000E+00
   6.072000      0.0000000E+00
   6.084000      0.0000000E+00
   6.096000      0.0000000E+00
   6.108000      0.0000000E+00
   6.120000      0.0000000E+00
   6.132000      0.0000000E+00
   6.144000      0.0000000E+00
   6.156000      0.0000000E+00
   6.168000      0.0000000E+00
   6.180000      0.0000000E+00
   6.192000      0.0000000E+00
   6.204000      0.0000000E+00
   6.216000      0.0000000E+00
   6.228000      0.0000000E+00
   6.240000      0.0000000E+00
   6.252000      0.0000000E+00
   6.264000      0.0000000E+00
   6.276000      0.0000000E+00
   6.288000      0.0000000E+00
   6.300000      0.0000000E+00
   6.312000      0.0000000E+00
   6.324000      0.0000000E+00
   6.336000      0.0000000E+00
   6.348000      0.0000000E+00
   6.360000      0.0000000E+00
   6.372000      0.0000000E+00
   6.384000      0.0000000E+00
   6.396000      0.0000000E+00
   6.408000      0.0000000E+00
   6.420000      0.0000000E+00
   6.432000      0.0000000E+00
   6.444000      0.0000000E+00
   6.456000      0.0000000E+00
   6.468000      0.0000000E+00
   6.480000      0.0000000E+00
   6.492000      0.0000000E+00
   6.504000      0.0000000E+00
   6.516000      0.0000000E+00
   6.528000      0.0000000E+00
   6.540000      0.0000000E+00
   6.552000      0.0000000E+00
   6.564000      0.0000000E+00
   6.576000      0.0000000E+00
   6.588000      0.0000000E+00
   6.600000      0.0000000E+00
   6.612000      0.0000000E+00
   6.624000      0.0000000E+00
   6.636000      0.0000000E+00
   6.648000      0.0000000E+00
   6.660000      0.0000000E+00
   6.672000      0.0000000E+00
   6.684000      0.0000000E+00
   6.696000      0.0000000E+00
   6.708000      0.0000000E+00
   6.720000      0.0000000E+00
   6.732000      0.0000000E+00
   6.744000      0.0000000E+00
   6.756000      0.0000000E+00
   6.768000      0.0000000E+00
   6.780000      0.0000000E+00
   6.792000      0.0000000E+00
   6.804000      0.0000000E+00
   6.816000      0.0000000E+00
   6.828000      0.0000000E+00
   6.840000      0.0000000E+00
   6.852000      0.0000000E+00
   6.864000      0.0000000E+00
   6.876000      0.0000000E+00
   6.888000      0.0000000E+00
   6.900000      0.0000000E+00
   6.912000      0.0000000E+00
   6.924000      0.0000000E+00
   6.936000      0.0000000E+00
   6.948000      0.0000000E+00
   6.960000      0.0000000E+00
   6.972000      0.0000000E+00
   6.984000      0.0000000E+00
   6.996000      0.0000000E+00
   7.008000      0.0000000E+00
   7.020000      0.0000000E+00
   7.032000      0.0000000E+00
   7.044000      0.0000000E+00
   7.056000      0.0000000E+00
   7.068000      0.0000000E+00
   7.080000      0.0000000E+00
   7.092000      0.0000000E+00
   7.104000      0.0000000E+00
   7.116000      0.0000000E+00
   7.128000      0.0000000E+00
   7.140000      0.0000000E+00
   7.152000      0.0000000E+00
   7.164000      0.0000000E+00
   7.176000      0.0000000E+00
   7.188000      0.0000000E+00
   7.200000      0.0000000E+00
   7.212000      0.0000000E+00
   7.224000      0.0000000E+00
   7.236000      0.0000000E+00
   7.248000      0.0000000E+00
   7.260000      0.0000000E+00
   7.272000      0.0000000E+00
   7.284000      0.0000000E+00
   7.296000      0.0000000E+00
   7.308000      0.0000000E+00
   7.320000      0.0000000E+00
   7.332000      0.0000000E+00
   7.344000      0.0000000E+00
   7.356000      0.0000000E+00
   7.368000      0.0000000E+00
   7.380000      0.0000000E+00
   7.392000      0.0000000E+00
   7.404000      0.0000000E+00
   7.416000      0.0000000E+00
   7.428000      0.0000000E+00
   7.440000      0.0000000E+00
   7.452000      0.0000000E+00
   7.464000      0.0000000E+00
   7.476000      0.0000000E+00
   7.488000      0.0000000E+00
   7.500000      0.0000000E+00
   7.512000      0.0000000E+00
   7.524000      0.0000000E+00
   7.536000      0.0000000E+00
   7.548000      0.0000000E+00
   7.560000      0.0000000E+00
   7.572000      0.0000000E+00
   7.584000      0.0000000E+00
   7.596000      0.0000000E+00
   7.608000      0.0000000E+00
   7.620000      0.0000000E+00
   7.632000      0.0000000E+00
   7.644000      0.0000000E+00
   7.656000      0.0000000E+00
   7.668000      0.0000000E+00
   7.680000      0.0000000E+00
   7.692000      0.0000000E+00
   7.704000      0.0000000E+00
   7.716000      0.0000000E+00
   7.728000      0.0000000E+00
   7.740000      0.0000000E+00
   7.752000      0.0000000E+00
   7.764000      0.0000000E+00
   7.776000      0.0000000E+00
   7.788000      0.0000000E+00
   7.800000      0.0000000E+00
   7.812000      0.0000000E+00
   7.824000      0.0000000E+00
   7.836000      0.0000000E+00
   7.848000      0.0000000E+00
   7.860000      0.0000000E+00
   7.872000      0.0000000E+00
   7.884000      0.0000000E+00
   7.896000      0.0000000E+00
   7.908000      0.0000000E+00
   7.920000      0.0000000E+00
   7.932000      0.0000000E+00
   7.944000      0.0000000E+00
   7.956000      0.0000000E+00
   7.968000      0.0000000E+00
   7.980000      0.0000000E+00
   7.992000      0.0000000E+00
   8.004000      0.0000000E+00
   8.016000      0.0000000E+00
   8.028000      0.0000000E+00
   8.040000      0.0000000E+00
   8.052000      0.0000000E+00
   8.064000      0.0000000E+00
   8.076000      0.0000000E+00
   8.088000      0.0000000E+00
   8.100000      0.0000000E+00
   8.112000      0.0000000E+00
   8.124000      0.0000000E+00
   8.136000      0.0000000E+00
   8.148000      0.0000000E+00
   8.160000      0.0000000E+00
   8.172000      0.0000000E+00
   8.184000      0.0000000E+00
   8.196000      0.0000000E+00
   8.208000      0.0000000E+00
   8.220000      0.0000000E+00
   8.232000      0.0000000E+00
   8.244000      0.0000000E+00
   8.256000      0.0000000E+00
   8.268000      0.0000000E+00
   8.280000      0.0000000E+00
   8.292000      0.0000000E+00
   8.304000      0.0000000E+00
   8.316000      0.0000000E+00
   8.328000      0.0000000E+00
   8.340000      0.0000000E+00
   8.352000      0.0000000E+00
   8.364000      1.6662033E-38
   8.376000      2.3987500E-38
   8.388000      2.7296022E-38
   8.400000      3.0380131E-38
   8.412000      3.1528431E-38
   8.424000      2.7378082E-38
   8.436000      2.2025464E-38
   8.448000      0.0000000E+00
   8.460000      0.0000000E+00
   8.472000      0.0000000E+00
   8.484000      0.0000000E+00
   8.496000      0.0000000E+00
   8.508000      2.2567786E-38
   8.520000      7.6133011E-38
   8.532000      1.5106139E-37
   8.544000      2.0702602E-37
   8.556000      2.6009335E-37
   8.568000      2.4935131E-37
   8.580000      1.5810710E-37
   8.592000      0.0000000E+00
   8.604000     -2.1499082E-37
   8.616000     -4.1731462E-37
   8.628000     -5.6112833E-37
   8.640000     -6.1802150E-37
   8.652000     -5.3772477E-37
   8.664000     -3.4660165E-37
   8.676000     -4.6014760E-38
   8.688000      2.1477027E-37
   8.700000      3.7959131E-37
   8.712000      3.8610472E-37
   8.724000      1.9825837E-37
   8.736000     -1.7427962E-37
   8.748000     -5.4814025E-37
   8.760000     -8.7954738E-37
   8.772000     -6.5410083E-37
   8.784000      2.5485247E-37
   8.796000      1.4378775E-36
   8.808000      2.7421064E-36
   8.820000      3.4785191E-36
   8.832000      3.1200740E-36
   8.844000      1.5843255E-36
   8.856000     -7.5992824E-37
   8.868000     -3.3174497E-36
   8.880000     -5.0343713E-36
   8.892000     -5.1899511E-36
   8.904000     -3.5947556E-36
   8.916000     -7.9912756E-37
   8.928000      2.1663568E-36
   8.940000      4.3934873E-36
   8.952000      5.1020150E-36
   8.964000      4.0324816E-36
   8.976000      1.5594602E-36
   8.988000     -1.3721144E-36
   9.000000     -3.7686098E-36
   9.012000     -4.9764834E-36
   9.024000     -4.5641560E-36
   9.036000     -2.5996102E-36
   9.048000      3.6211561E-37
   9.060000      3.3457537E-36
   9.072000      4.9787786E-36
   9.084000      4.8584536E-36
   9.096000      3.4146249E-36
   9.108000      1.0217283E-36
   9.120000     -1.6713659E-36
   9.132000     -3.6356557E-36
   9.144000     -4.4156150E-36
   9.156000     -3.7383716E-36
   9.168000     -2.2962834E-36
   9.180000     -9.2314054E-37
   9.192000     -2.8979079E-37
   9.204000     -5.3035918E-37
   9.216000     -1.4683464E-36
   9.228000     -1.8056337E-36
   9.240000     -2.0534374E-37
   9.252000      4.7673255E-36
   9.264000      1.3665363E-35
   9.276000      2.5857716E-35
   9.288000      3.9854462E-35
   9.300000      5.3266201E-35
   9.312000      6.3839910E-35
   9.324000      6.9171087E-35
   9.336000      6.7963726E-35
   9.348000      5.9783398E-35
   9.360000      4.4871420E-35
   9.372000      2.4230400E-35
   9.384000     -1.3420529E-36
   9.396000     -3.1011280E-35
   9.408000     -6.4136011E-35
   9.420000     -9.9643029E-35
   9.432000     -1.3609253E-34
   9.444000     -1.7138293E-34
   9.456000     -2.0265146E-34
   9.468000     -2.2617707E-34
   9.480000     -2.3765164E-34
   9.492000     -2.3256690E-34
   9.504000     -2.0715420E-34
   9.516000     -1.5883952E-34
   9.528000     -8.6599007E-35
   9.540000      8.4439273E-36
   9.552000      1.2270156E-34
   9.564000      2.5047496E-34
   9.576000      3.8422893E-34
   9.588000      5.1498853E-34
   9.600000      6.3265795E-34
   9.612000      7.2639839E-34
   9.624000      7.8508733E-34
   9.636000      7.9778965E-34
   9.648000      7.5440803E-34
   9.660000      6.4658342E-34
   9.672000      4.6876901E-34
   9.684000      2.1950908E-34
   9.696000     -9.7452098E-35
   9.708000     -4.7231877E-34
   9.720000     -8.8841181E-34
   9.732000     -1.3222581E-33
   9.744000     -1.7441719E-33
   9.756000     -2.1194710E-33
   9.768000     -2.4103021E-33
   9.780000     -2.5780485E-33
   9.792000     -2.5860216E-33
   9.804000     -2.4027340E-33
   9.816000     -2.0051748E-33
   9.828000     -1.3821381E-33
   9.840000     -5.3728711E-34
   9.852000      5.0826539E-34
   9.864000      1.7142515E-33
   9.876000      3.0206171E-33
   9.888000      4.3483586E-33
   9.900000      5.6019947E-33
   9.912000      6.6738075E-33
   9.924000      7.4498328E-33
   9.936000      7.8174481E-33
   9.948000      7.6742457E-33
   9.960000      6.9377633E-33
   9.972000      5.5553330E-33
   9.984000      3.5136676E-33
   9.996000      8.4680602E-34
   10.00800     -2.3578885E-33
   10.02000     -5.9567963E-33
   10.03200     -9.7508263E-33
   10.04400     -1.3490584E-32
   10.05600     -1.6886313E-32
   10.06800     -1.9622699E-32
   10.08000     -2.1378320E-32
   10.09200     -2.1849084E-32
   10.10400     -2.0774554E-32
   10.11600     -1.7965711E-32
   10.12800     -1.3332144E-32
   10.14000     -6.9065730E-33
   10.15200      1.1358294E-33
   10.16400      1.0465609E-32
   10.17600      2.0597071E-32
   10.18800      3.0898060E-32
   10.20000      4.0612818E-32
   10.21200      4.8898484E-32
   10.22400      5.4874821E-32
   10.23600      5.7685704E-32
   10.24800      5.6569672E-32
   10.26000      5.0935645E-32
   10.27200      4.0438907E-32
   10.28400      2.5051389E-32
   10.29600      5.1198142E-33
   10.30800     -1.8595047E-32
   10.32000     -4.4904448E-32
   10.33200     -7.2208684E-32
   10.34400     -9.8549285E-32
   10.35600     -1.2169858E-31
   10.36800     -1.3928623E-31
   10.38000     -1.4895960E-31
   10.39200     -1.4857132E-31
   10.40400     -1.3638416E-31
   10.41600     -1.1128050E-31
   10.42800     -7.2960630E-32
   10.44000     -2.2112431E-32
   10.45200      3.9465918E-32
   10.46400      1.0880827E-31
   10.47600      1.8180413E-31
   10.48800      2.5331619E-31
   10.50000      3.1739944E-31
   10.51200      3.6762326E-31
   10.52400      3.9748909E-31
   10.53600      4.0092901E-31
   10.54800      3.7286034E-31
   10.56000      3.0976298E-31
   10.57200      2.1023869E-31
   10.58400      7.5505781E-32
   10.59600     -9.0221625E-32
   10.60800     -2.7951927E-31
   10.62000     -4.8175008E-31
   10.63200     -6.8331110E-31
   10.64400     -8.6815656E-31
   10.65600     -1.0186044E-30
   10.66800     -1.1164167E-30
   10.68000     -1.1441182E-30
   10.69200     -1.0864933E-30
   10.70400     -9.3217953E-31
   10.71600     -6.7524989E-31
   10.72800     -3.1666165E-31
   10.74000      1.3456428E-31
   10.75200      6.6057324E-31
   10.76400      1.2344460E-30
   10.77600      1.8206233E-30
   10.78800      2.3760704E-30
   10.80000      2.8522201E-30
   10.81200      3.1976911E-30
   10.82400      3.3617081E-30
   10.83600      3.2980851E-30
   10.84800      2.9695767E-30
   10.86000      2.3523250E-30
   10.87200      1.4400809E-30
   10.88400      2.4784849E-31
   10.89600     -1.1854354E-30
   10.90800     -2.7955509E-30
   10.92000     -4.4933127E-30
   10.93200     -6.1668254E-30
   10.94400     -7.6858417E-30
   10.95600     -8.9082716E-30
   10.96800     -9.6887224E-30
   10.98000     -9.8887874E-30
   10.99200     -9.3886226E-30
   11.00400     -8.0991621E-30
   11.01600     -5.9741813E-30
   11.02800     -3.0212753E-30
   11.04000      6.8923926E-31
   11.05200      5.0185348E-30
   11.06400      9.7575413E-30
   11.07600      1.4630118E-29
   11.08800      1.9301720E-29
   11.10000      2.3393857E-29
   11.11200      2.6504305E-29
   11.12400      2.8232487E-29
   11.13600      2.8209126E-29
   11.14800      2.6128676E-29
   11.16000      2.1782603E-29
   11.17200      1.5091283E-29
   11.18400      6.1318946E-30
   11.19600     -4.8403355E-30
   11.20800     -1.7380266E-29
   11.22000     -3.0852736E-29
   11.23200     -4.4446226E-29
   11.24400     -5.7201570E-29
   11.25600     -6.8056165E-29
   11.26800     -7.5903066E-29
   11.28000     -7.9663131E-29
   11.29200     -7.8367251E-29
   11.30400     -7.1244326E-29
   11.31600     -5.7809682E-29
   11.32800     -3.7947645E-29
   11.34000     -1.1981451E-29
   11.35200      1.9276707E-29
   11.36400      5.4502108E-29
   11.37600      9.1866563E-29
   11.38800      1.2908460E-28
   11.40000      1.6349972E-28
   11.41200      1.9221084E-28
   11.42400      2.1223664E-28
   11.43600      2.2071220E-28
   11.44800      2.1510945E-28
   11.46000      1.9346935E-28
   11.47200      1.5463187E-28