 -0.1200000      0.0000000E+00
 -0.1080000      0.0000000E+00
 -9.6000001E-02  0.0000000E+00
 -8.3999999E-02  0.0000000E+00
 -7.1999997E-02  0.0000000E+00
 -5.9999999E-02  0.0000000E+00
 -4.8000000E-02  0.0000000E+00
 -3.5999998E-02  0.0000000E+00
 -2.4000000E-02  0.0000000E+00
 -1.2000000E-02  0.0000000E+00
  6.9388939E-18  0.0000000E+00
  1.2000000E-02  0.0000000E+00
  2.4000000E-02  0.0000000E+00
  3.5999998E-02  0.0000000E+00
  4.8000000E-02  0.0000000E+00
  5.9999999E-02  0.0000000E+00
  7.1999997E-02  0.0000000E+00
  8.3999999E-02  0.0000000E+00
  9.6000001E-02  0.0000000E+00
  0.1080000      0.0000000E+00
  0.1200000      0.0000000E+00
  0.1320000      0.0000000E+00
  0.1440000      0.0000000E+00
  0.1560000      0.0000000E+00
  0.1680000      0.0000000E+00
  0.1800000      0.0000000E+00
  0.1920000      0.0000000E+00
  0.2040000      0.0000000E+00
  0.2160000      0.0000000E+00
  0.2280000      0.0000000E+00
  0.2400000      0.0000000E+00
  0.2520000      0.0000000E+00
  0.2640000      0.0000000E+00
  0.2760000      0.0000000E+00
  0.2880000      0.0000000E+00
  0.3000000      0.0000000E+00
  0.3120000      0.0000000E+00
  0.3240000      0.0000000E+00
  0.3360000      0.0000000E+00
  0.3480000      0.0000000E+00
  0.3600000      0.0000000E+00
  0.3720000      0.0000000E+00
  0.3840000      0.0000000E+00
  0.3960000      0.0000000E+00
  0.4080000      0.0000000E+00
  0.4200000      0.0000000E+00
  0.4320000      0.0000000E+00
  0.4440000      0.0000000E+00
  0.4560000      0.0000000E+00
  0.4680000      0.0000000E+00
  0.4800000      0.0000000E+00
  0.4920000      0.0000000E+00
  0.5040000      0.0000000E+00
  0.5160000      0.0000000E+00
  0.5280000      0.0000000E+00
  0.5400000      0.0000000E+00
  0.5520000      0.0000000E+00
  0.5640000      0.0000000E+00
  0.5760000      0.0000000E+00
  0.5880000      0.0000000E+00
  0.6000000      0.0000000E+00
  0.6120000      0.0000000E+00
  0.6240000      0.0000000E+00
  0.6360000      0.0000000E+00
  0.6480000      0.0000000E+00
  0.6600000      0.0000000E+00
  0.6720000      0.0000000E+00
  0.6840000      0.0000000E+00
  0.6960000      0.0000000E+00
  0.7080000      0.0000000E+00
  0.7200000      0.0000000E+00
  0.7320000      0.0000000E+00
  0.7440000      0.0000000E+00
  0.7560000      0.0000000E+00
  0.7680000      0.0000000E+00
  0.7800000      0.0000000E+00
  0.7920000      0.0000000E+00
  0.8040000      0.0000000E+00
  0.8160000      0.0000000E+00
  0.8280000      0.0000000E+00
  0.8400000      0.0000000E+00
  0.8520000      0.0000000E+00
  0.8640000      0.0000000E+00
  0.8760000      0.0000000E+00
  0.8880000      0.0000000E+00
  0.9000000      0.0000000E+00
  0.9120000      0.0000000E+00
  0.9240000      0.0000000E+00
  0.9360000      0.0000000E+00
  0.9480000      0.0000000E+00
  0.9600000      0.0000000E+00
  0.9720000      0.0000000E+00
  0.9840000      0.0000000E+00
  0.9960000      0.0000000E+00
   1.008000      0.0000000E+00
   1.020000      0.0000000E+00
   1.032000      0.0000000E+00
   1.044000      0.0000000E+00
   1.056000      0.0000000E+00
   1.068000      0.0000000E+00
   1.080000      0.0000000E+00
   1.092000      0.0000000E+00
   1.104000      0.0000000E+00
   1.116000      0.0000000E+00
   1.128000      0.0000000E+00
   1.140000      0.0000000E+00
   1.152000      0.0000000E+00
   1.164000      0.0000000E+00
   1.176000      0.0000000E+00
   1.188000      0.0000000E+00
   1.200000      0.0000000E+00
   1.212000      0.0000000E+00
   1.224000      0.0000000E+00
   1.236000      0.0000000E+00
   1.248000      0.0000000E+00
   1.260000      0.0000000E+00
   1.272000      0.0000000E+00
   1.284000      0.0000000E+00
   1.296000      0.0000000E+00
   1.308000      0.0000000E+00
   1.320000      0.0000000E+00
   1.332000      0.0000000E+00
   1.344000      0.0000000E+00
   1.356000      0.0000000E+00
   1.368000      0.0000000E+00
   1.380000      0.0000000E+00
   1.392000      0.0000000E+00
   1.404000      0.0000000E+00
   1.416000      0.0000000E+00
   1.428000      0.0000000E+00
   1.440000      0.0000000E+00
   1.452000      0.0000000E+00
   1.464000      0.0000000E+00
   1.476000      0.0000000E+00
   1.488000      0.0000000E+00
   1.500000      0.0000000E+00
   1.512000      0.0000000E+00
   1.524000      0.0000000E+00
   1.536000      0.0000000E+00
   1.548000      0.0000000E+00
   1.560000      0.0000000E+00
   1.572000      0.0000000E+00
   1.584000      0.0000000E+00
   1.596000      0.0000000E+00
   1.608000      0.0000000E+00
   1.620000      0.0000000E+00
   1.632000      0.0000000E+00
   1.644000      0.0000000E+00
   1.656000      0.0000000E+00
   1.668000      0.0000000E+00
   1.680000      0.0000000E+00
   1.692000      0.0000000E+00
   1.704000      0.0000000E+00
   1.716000      0.0000000E+00
   1.728000      0.0000000E+00
   1.740000      0.0000000E+00
   1.752000      0.0000000E+00
   1.764000      0.0000000E+00
   1.776000      0.0000000E+00
   1.788000      0.0000000E+00
   1.800000      0.0000000E+00
   1.812000      0.0000000E+00
   1.824000      0.0000000E+00
   1.836000      0.0000000E+00
   1.848000      0.0000000E+00
   1.860000      0.0000000E+00
   1.872000      0.0000000E+00
   1.884000      0.0000000E+00
   1.896000      0.0000000E+00
   1.908000      0.0000000E+00
   1.920000      0.0000000E+00
   1.932000      0.0000000E+00
   1.944000      0.0000000E+00
   1.956000      0.0000000E+00
   1.968000      0.0000000E+00
   1.980000      0.0000000E+00
   1.992000      0.0000000E+00
   2.004000      0.0000000E+00
   2.016000      0.0000000E+00
   2.028000      0.0000000E+00
   2.040000      0.0000000E+00
   2.052000      0.0000000E+00
   2.064000      0.0000000E+00
   2.076000      0.0000000E+00
   2.088000      0.0000000E+00
   2.100000      0.0000000E+00
   2.112000      0.0000000E+00
   2.124000      0.0000000E+00
   2.136000      0.0000000E+00
   2.148000      0.0000000E+00
   2.160000      0.0000000E+00
   2.172000      0.0000000E+00
   2.184000      0.0000000E+00
   2.196000      0.0000000E+00
   2.208000      0.0000000E+00
   2.220000      0.0000000E+00
   2.232000      0.0000000E+00
   2.244000      0.0000000E+00
   2.256000      0.0000000E+00
   2.268000      0.0000000E+00
   2.280000      0.0000000E+00
   2.292000      0.0000000E+00
   2.304000      0.0000000E+00
   2.316000      0.0000000E+00
   2.328000      0.0000000E+00
   2.340000      0.0000000E+00
   2.352000      0.0000000E+00
   2.364000      0.0000000E+00
   2.376000      0.0000000E+00
   2.388000      0.0000000E+00
   2.400000      0.0000000E+00
   2.412000      0.0000000E+00
   2.424000      0.0000000E+00
   2.436000      0.0000000E+00
   2.448000      0.0000000E+00
   2.460000      0.0000000E+00
   2.472000      0.0000000E+00
   2.484000      0.0000000E+00
   2.496000      0.0000000E+00
   2.508000      0.0000000E+00
   2.520000      0.0000000E+00
   2.532000      0.0000000E+00
   2.544000      0.0000000E+00
   2.556000      0.0000000E+00
   2.568000      0.0000000E+00
   2.580000      0.0000000E+00
   2.592000      0.0000000E+00
   2.604000      0.0000000E+00
   2.616000      0.0000000E+00
   2.628000      0.0000000E+00
   2.640000      0.0000000E+00
   2.652000      0.0000000E+00
   2.664000      0.0000000E+00
   2.676000      0.0000000E+00
   2.688000      0.0000000E+00
   2.700000      0.0000000E+00
   2.712000      0.0000000E+00
   2.724000      0.0000000E+00
   2.736000      0.0000000E+00
   2.748000      0.0000000E+00
   2.760000      0.0000000E+00
   2.772000      0.0000000E+00
   2.784000      0.0000000E+00
   2.796000      0.0000000E+00
   2.808000      0.0000000E+00
   2.820000      0.0000000E+00
   2.832000      0.0000000E+00
   2.844000      0.0000000E+00
   2.856000      0.0000000E+00
   2.868000      0.0000000E+00
   2.880000      0.0000000E+00
   2.892000      0.0000000E+00
   2.904000      0.0000000E+00
   2.916000      0.0000000E+00
   2.928000      0.0000000E+00
   2.940000      0.0000000E+00
   2.952000      0.0000000E+00
   2.964000      0.0000000E+00
   2.976000      0.0000000E+00
   2.988000      0.0000000E+00
   3.000000      0.0000000E+00
   3.012000      0.0000000E+00
   3.024000      0.0000000E+00
   3.036000      0.0000000E+00
   3.048000      0.0000000E+00
   3.060000      0.0000000E+00
   3.072000      0.0000000E+00
   3.084000      0.0000000E+00
   3.096000      0.0000000E+00
   3.108000      0.0000000E+00
   3.120000      0.0000000E+00
   3.132000      0.0000000E+00
   3.144000      0.0000000E+00
   3.156000      0.0000000E+00
   3.168000      0.0000000E+00
   3.180000      0.0000000E+00
   3.192000      0.0000000E+00
   3.204000      0.0000000E+00
   3.216000      0.0000000E+00
   3.228000      0.0000000E+00
   3.240000      0.0000000E+00
   3.252000      0.0000000E+00
   3.264000      0.0000000E+00
   3.276000      0.0000000E+00
   3.288000      0.0000000E+00
   3.300000      0.0000000E+00
   3.312000      0.0000000E+00
   3.324000      0.0000000E+00
   3.336000      0.0000000E+00
   3.348000      0.0000000E+00
   3.360000      0.0000000E+00
   3.372000      0.0000000E+00
   3.384000      0.0000000E+00
   3.396000      0.0000000E+00
   3.408000      0.0000000E+00
   3.420000      0.0000000E+00
   3.432000      0.0000000E+00
   3.444000      0.0000000E+00
   3.456000      0.0000000E+00
   3.468000      0.0000000E+00
   3.480000      0.0000000E+00
   3.492000      0.0000000E+00
   3.504000      0.0000000E+00
   3.516000      0.0000000E+00
   3.528000      0.0000000E+00
   3.540000      0.0000000E+00
   3.552000      0.0000000E+00
   3.564000      0.0000000E+00
   3.576000      0.0000000E+00
   3.588000      0.0000000E+00
   3.600000      0.0000000E+00
   3.612000      0.0000000E+00
   3.624000      0.0000000E+00
   3.636000      0.0000000E+00
   3.648000      0.0000000E+00
   3.660000      0.0000000E+00
   3.672000      0.0000000E+00
   3.684000      0.0000000E+00
   3.696000      0.0000000E+00
   3.708000      0.0000000E+00
   3.720000      0.0000000E+00
   3.732000      0.0000000E+00
   3.744000      0.0000000E+00
   3.756000      0.0000000E+00
   3.768000      0.0000000E+00
   3.780000      0.0000000E+00
   3.792000      0.0000000E+00
   3.804000      0.0000000E+00
   3.816000      0.0000000E+00
   3.828000      0.0000000E+00
   3.840000      0.0000000E+00
   3.852000      0.0000000E+00
   3.864000      0.0000000E+00
   3.876000      0.0000000E+00
   3.888000      0.0000000E+00
   3.900000      0.0000000E+00
   3.912000      0.0000000E+00
   3.924000      0.0000000E+00
   3.936000      0.0000000E+00
   3.948000      0.0000000E+00
   3.960000      0.0000000E+00
   3.972000      0.0000000E+00
   3.984000      0.0000000E+00
   3.996000      0.0000000E+00
   4.008000      0.0000000E+00
   4.020000      0.0000000E+00
   4.032000      0.0000000E+00
   4.044000      0.0000000E+00
   4.056000      0.0000000E+00
   4.068000      0.0000000E+00
   4.080000      0.0000000E+00
   4.092000      0.0000000E+00
   4.104000      0.0000000E+00
   4.116000      0.0000000E+00
   4.128000      0.0000000E+00
   4.140000      0.0000000E+00
   4.152000      0.0000000E+00
   4.164000      0.0000000E+00
   4.176000      0.0000000E+00
   4.188000      0.0000000E+00
   4.200000      0.0000000E+00
   4.212000      0.0000000E+00
   4.224000      0.0000000E+00
   4.236000      0.0000000E+00
   4.248000      0.0000000E+00
   4.260000      0.0000000E+00
   4.272000      0.0000000E+00
   4.284000      0.0000000E+00
   4.296000      0.0000000E+00
   4.308000      0.0000000E+00
   4.320000      0.0000000E+00
   4.332000      0.0000000E+00
   4.344000      0.0000000E+00
   4.356000      0.0000000E+00
   4.368000      0.0000000E+00
   4.380000      0.0000000E+00
   4.392000      0.0000000E+00
   4.404000      0.0000000E+00
   4.416000      0.0000000E+00
   4.428000      0.0000000E+00
   4.440000      0.0000000E+00
   4.452000      0.0000000E+00
   4.464000      0.0000000E+00
   4.476000      0.0000000E+00
   4.488000      0.0000000E+00
   4.500000      0.0000000E+00
   4.512000      0.0000000E+00
   4.524000      0.0000000E+00
   4.536000      0.0000000E+00
   4.548000      0.0000000E+00
   4.560000      0.0000000E+00
   4.572000      0.0000000E+00
   4.584000      0.0000000E+00
   4.596000      0.0000000E+00
   4.608000      0.0000000E+00
   4.620000      0.0000000E+00
   4.632000      0.0000000E+00
   4.644000      0.0000000E+00
   4.656000      0.0000000E+00
   4.668000      0.0000000E+00
   4.680000      0.0000000E+00
   4.692000      0.0000000E+00
   4.704000      0.0000000E+00
   4.716000      0.0000000E+00
   4.728000      0.0000000E+00
   4.740000      0.0000000E+00
   4.752000      0.0000000E+00
   4.764000      0.0000000E+00
   4.776000      0.0000000E+00
   4.788000      0.0000000E+00
   4.800000      0.0000000E+00
   4.812000      0.0000000E+00
   4.824000      0.0000000E+00
   4.836000      0.0000000E+00
   4.848000      0.0000000E+00
   4.860000      0.0000000E+00
   4.872000      0.0000000E+00
   4.884000      0.0000000E+00
   4.896000      0.0000000E+00
   4.908000      0.0000000E+00
   4.920000      0.0000000E+00
   4.932000      0.0000000E+00
   4.944000      0.0000000E+00
   4.956000      0.0000000E+00
   4.968000      0.0000000E+00
   4.980000      0.0000000E+00
   4.992000      0.0000000E+00
   5.004000      0.0000000E+00
   5.016000      0.0000000E+00
   5.028000      0.0000000E+00
   5.040000      0.0000000E+00
   5.052000      0.0000000E+00
   5.064000      0.0000000E+00
   5.076000      0.0000000E+00
   5.088000      0.0000000E+00
   5.100000      0.0000000E+00
   5.112000      0.0000000E+00
   5.124000      0.0000000E+00
   5.136000      0.0000000E+00
   5.148000      0.0000000E+00
   5.160000      0.0000000E+00
   5.172000      0.0000000E+00
   5.184000      0.0000000E+00
   5.196000      0.0000000E+00
   5.208000      0.0000000E+00
   5.220000      0.0000000E+00
   5.232000      0.0000000E+00
   5.244000      0.0000000E+00
   5.256000      0.0000000E+00
   5.268000      0.0000000E+00
   5.280000      0.0000000E+00
   5.292000      0.0000000E+00
   5.304000      0.0000000E+00
   5.316000      0.0000000E+00
   5.328000      0.0000000E+00
   5.340000      0.0000000E+00
   5.352000      0.0000000E+00
   5.364000      0.0000000E+00
   5.376000      0.0000000E+00
   5.388000      0.0000000E+00
   5.400000      0.0000000E+00
   5.412000      0.0000000E+00
   5.424000      0.0000000E+00
   5.436000      0.0000000E+00
   5.448000      0.0000000E+00
   5.460000      0.0000000E+00
   5.472000      0.0000000E+00
   5.484000      0.0000000E+00
   5.496000      0.0000000E+00
   5.508000      0.0000000E+00
   5.520000      0.0000000E+00
   5.532000      0.0000000E+00
   5.544000      0.0000000E+00
   5.556000      0.0000000E+00
   5.568000      0.0000000E+00
   5.580000      0.0000000E+00
   5.592000      0.0000000E+00
   5.604000      0.0000000E+00
   5.616000      0.0000000E+00
   5.628000      0.0000000E+00
   5.640000      0.0000000E+00
   5.652000      0.0000000E+00
   5.664000      0.0000000E+00
   5.676000      0.0000000E+00
   5.688000      0.0000000E+00
   5.700000      0.0000000E+00
   5.712000      0.0000000E+00
   5.724000      0.0000000E+00
   5.736000      2.6420333E-38
   5.748000      8.1457564E-38
   5.760000      1.2329603E-37
   5.772000      1.5729757E-37
   5.784000      1.6407553E-37
   5.796000      1.4882444E-37
   5.808000      1.0727287E-37
   5.820000      9.7629899E-38
   5.832000      1.2950203E-37
   5.844000      1.8921762E-37
   5.856000      2.6021119E-37
   5.868000      3.1614603E-37
   5.880000      3.4406131E-37
   5.892000      2.9036247E-37
   5.904000      1.5099058E-37
   5.916000     -4.6824043E-38
   5.928000     -2.5082574E-37
   5.940000     -3.7991547E-37
   5.952000     -3.5007066E-37
   5.964000     -1.2184885E-37
   5.976000      3.4055286E-37
   5.988000      9.0973184E-37
   6.000000      1.4194082E-36
   6.012000      1.6220283E-36
   6.024000      1.2732430E-36
   6.036000      4.5194786E-37
   6.048000     -9.1761543E-37
   6.060000     -2.7114445E-36
   6.072000     -4.7861902E-36
   6.084000     -6.5652142E-36
   6.096000     -7.6298351E-36
   6.108000     -7.6215735E-36
   6.120000     -6.1390401E-36
   6.132000     -2.8643993E-36
   6.144000      2.5049425E-36
   6.156000      1.0123015E-35
   6.168000      1.9724533E-35
   6.180000      3.0613983E-35
   6.192000      4.1656572E-35
   6.204000      5.1087002E-35
   6.216000      5.6866187E-35
   6.228000      5.6652485E-35
   6.240000      4.8301453E-35
   6.252000      3.0319090E-35
   6.264000      2.1110457E-36
   6.276000     -3.5539135E-35
   6.288000     -8.0345056E-35
   6.300000     -1.2855593E-34
   6.312000     -1.7504440E-34
   6.324000     -2.1370290E-34
   6.336000     -2.3794325E-34
   6.348000     -2.4128964E-34
   6.360000     -2.1798312E-34
   6.372000     -1.6372043E-34
   6.384000     -7.6408464E-35
   6.396000      4.3126371E-35
   6.408000      1.9035473E-34
   6.420000      3.5665984E-34
   6.432000      5.2915301E-34
   6.444000      6.9089116E-34
   6.456000      8.2167597E-34
   6.468000      8.9935337E-34
   6.480000      9.0169187E-34
   6.492000      8.0876675E-34
   6.504000      6.0558145E-34
   6.516000      2.8485495E-34
   6.528000     -1.5028983E-34
   6.540000     -6.8406718E-34
   6.552000     -1.2864891E-33
   6.564000     -1.9128092E-33
   6.576000     -2.5044486E-33
   6.588000     -2.9914434E-33
   6.600000     -3.2967158E-33
   6.612000     -3.3420807E-33
   6.624000     -3.0559209E-33
   6.636000     -2.3820862E-33
   6.648000     -1.2895149E-33
   6.660000      2.1824990E-34
   6.672000      2.0946198E-33
   6.684000      4.2437267E-33
   6.696000      6.5175931E-33
   6.708000      8.7178606E-33
   6.720000      1.0603073E-32
   6.732000      1.1902153E-32
   6.744000      1.2334277E-32
   6.756000      1.1634729E-32
   6.768000      9.5855812E-33
   6.780000      6.0493746E-33
   6.792000      1.0030824E-33
   6.804000     -5.4309231E-33
   6.816000     -1.2960785E-32
   6.828000     -2.1112048E-32
   6.840000     -2.9229563E-32
   6.852000     -3.6497880E-32
   6.864000     -4.1982593E-32
   6.876000     -4.4693935E-32
   6.888000     -4.3671014E-32
   6.900000     -3.8084022E-32
   6.912000     -2.7348317E-32
   6.924000     -1.1241986E-32
   6.936000      9.9838732E-33
   6.948000      3.5514697E-32
   6.960000      6.3915489E-32
   6.972000      9.3120934E-32
   6.984000      1.2048466E-31
   6.996000      1.4289704E-31
   7.008000      1.5697616E-31
   7.020000      1.5933060E-31
   7.032000      1.4688558E-31
   7.044000      1.1725561E-31
   7.056000      6.9138434E-32
   7.068000      2.6973830E-33
   7.080000     -8.0107571E-32
   7.092000     -1.7528376E-31
   7.104000     -2.7670940E-31
   7.116000     -3.7621826E-31
   7.128000     -4.6389911E-31
   7.140000     -5.2863062E-31
   7.152000     -5.5885470E-31
   7.164000     -5.4356989E-31
   7.176000     -4.7349923E-31
   7.188000     -3.4236374E-31
   7.200000     -1.4816370E-31
   7.212000      1.0565035E-31
   7.224000      4.0925259E-31
   7.236000      7.4590420E-31
   7.248000      1.0919408E-30
   7.260000      1.4174028E-30
   7.272000      1.6873945E-30
   7.284000      1.8642043E-30
   7.296000      1.9101625E-30
   7.308000      1.7911286E-30
   7.320000      1.4804297E-30
   7.332000      9.6298152E-31
   7.344000      2.3925523E-31
   7.356000     -6.7131091E-31
   7.368000     -1.7278874E-30
   7.380000     -2.8672536E-30
   7.392000     -4.0046211E-30
   7.404000     -5.0365998E-30
   7.416000     -5.8464959E-30
   7.428000     -6.3119631E-30
   7.440000     -6.3148143E-30
   7.452000     -5.7525703E-30
   7.464000     -4.5510703E-30
   7.476000     -2.6772326E-30
   7.488000     -1.5085381E-31
   7.500000      2.9458142E-30
   7.512000      6.4620374E-30
   7.524000      1.0177395E-29
   7.536000      1.3806528E-29
   7.548000      1.7010627E-29
   7.560000      1.9416078E-29
   7.572000      2.0640062E-29
   7.584000      2.0322298E-29
   7.596000      1.8161393E-29
   7.608000      1.3953549E-29
   7.620000      7.6307090E-30
   7.632000     -7.0531076E-31
   7.644000     -1.0756493E-29
   7.656000     -2.2013977E-29
   7.668000     -3.3758729E-29
   7.680000     -4.5080537E-29
   7.692000     -5.4917411E-29
   7.704000     -6.2115989E-29
   7.716000     -6.5512006E-29
   7.728000     -6.4027866E-29
   7.740000     -5.6782343E-29
   7.752000     -4.3205386E-29
   7.764000     -2.3149356E-29
   7.776000      3.0136709E-30
   7.788000      3.4319361E-29
   7.800000      6.9174420E-29
   7.812000      1.0536579E-28
   7.824000      1.4012384E-28
   7.836000      1.7024479E-28
   7.848000      1.9227345E-28
   7.860000      2.0274257E-28
   7.872000      1.9845975E-28
   7.884000      1.7682701E-28
   7.896000      1.3617268E-28
   7.908000      7.6070694E-29
   7.920000     -2.3820122E-30
   7.932000     -9.6360264E-29
   7.944000     -2.0120849E-28
   7.956000     -3.1046922E-28
   7.968000     -4.1606466E-28
   7.980000     -5.0864508E-28
   7.992000     -5.7810668E-28
   8.004000     -6.1426895E-28
   8.016000     -6.0768583E-28
   8.028000     -5.5055028E-28
   8.040000     -4.3763657E-28
   8.052000     -2.6721125E-28
   8.064000     -4.1834662E-29
   8.076000      2.3103200E-28
   8.088000      5.3869772E-28
   8.100000      8.6326815E-28
   8.112000      1.1820904E-27
   8.124000      1.4686576E-27
   8.136000      1.6939860E-27
   8.148000      1.8284405E-27
   8.160000      1.8439508E-27
   8.172000      1.7165103E-27
   8.184000      1.4288198E-27
   8.196000      9.7289170E-28
   8.208000      3.5240849E-28
   8.220000     -4.1539237E-28
   8.232000     -1.2985384E-27
   8.244000     -2.2500638E-27
   8.256000     -3.2088599E-27
   8.268000     -4.1017682E-27
   8.280000     -4.8469821E-27
   8.292000     -5.3587287E-27
   8.304000     -5.5531128E-27
   8.316000     -5.3548845E-27
   8.328000     -4.7047899E-27
   8.340000     -3.5670457E-27
   8.352000     -1.9364157E-27
   8.364000      1.5572982E-28
   8.376000      2.6370008E-27
   8.388000      5.3918493E-27
   8.400000      8.2622757E-27
   8.412000      1.1051843E-26
   8.424000      1.3533300E-26
   8.436000      1.5459905E-26
   8.448000      1.6580274E-26
   8.460000      1.6656330E-26
   8.472000      1.5483557E-26
   8.484000      1.2912512E-26
   8.496000      8.8702602E-27
   8.508000      3.3801149E-27
   8.520000     -3.4220439E-27
   8.532000     -1.1276710E-26
   8.544000     -1.9796722E-26
   8.556000     -2.8471867E-26
   8.568000     -3.6683373E-26
   8.580000     -4.3729071E-26
   8.592000     -4.8859444E-26
   8.604000     -5.1323857E-26
   8.616000     -5.0425687E-26
   8.628000     -4.5583847E-26
   8.640000     -3.6397608E-26
   8.652000     -2.2710506E-26
   8.664000     -4.6685905E-27
   8.676000      1.7232312E-26
   8.688000      4.2115857E-26
   8.700000      6.8716342E-26
   8.712000      9.5396635E-26
   8.724000      1.2019667E-25
   8.736000      1.4091493E-25
   8.748000      1.5522338E-25
   8.760000      1.6081383E-25
   8.772000      1.5557123E-25
   8.784000      1.3776668E-25
   8.796000      1.0625956E-25
   8.808000      6.0696098E-26
   8.820000      1.6889968E-27
   8.832000     -6.9038672E-26
   8.844000     -1.4856283E-25
   8.856000     -2.3273820E-25
   8.868000     -3.1626378E-25
   8.880000     -3.9284640E-25
   8.892000     -4.5546906E-25
   8.904000     -4.9676573E-25
   8.916000     -5.0949533E-25
   8.928000     -4.8710036E-25
   8.940000     -4.2432483E-25
   8.952000     -3.1785831E-25
   8.964000     -1.6696303E-25
   8.976000      2.5964965E-26
   8.988000      2.5495600E-25
   9.000000      5.1020467E-25
   9.012000      7.7803956E-25
   9.024000      1.0411743E-24
   9.036000      1.2792750E-24
   9.048000      1.4698661E-24
   9.060000      1.5895728E-24
   9.072000      1.6156759E-24
   9.084000      1.5279222E-24
   9.096000      1.3105076E-24
   9.108000      9.5411878E-25
   9.120000      4.5789239E-25
   9.132000     -1.6887113E-25
   9.144000     -9.0541422E-25
   9.156000     -1.7188287E-24
   9.168000     -2.5641322E-24
   9.180000     -3.3852562E-24
   9.192000     -4.1170524E-24
   9.204000     -4.6883644E-24
   9.216000     -5.0261401E-24
   9.228000     -5.0604804E-24
   9.240000     -4.7304273E-24
   9.252000     -3.9902028E-24
   9.264000     -2.8155118E-24
   9.276000     -1.2094596E-24
   9.288000      7.9244016E-25
   9.300000      3.1187123E-24
   9.312000      5.6603649E-24
   9.324000      8.2718306E-24
   9.336000      1.0774807E-23
   9.348000      1.2965254E-23
   9.360000      1.4623637E-23
   9.372000      1.5528232E-23
   9.384000      1.5471113E-23
   9.396000      1.4276103E-23
   9.408000      1.1817710E-23
   9.420000      8.0398645E-24
   9.432000      2.9729533E-24
   9.444000     -3.2523723E-24
   9.456000     -1.0396280E-23
   9.468000     -1.8107283E-23
   9.480000     -2.5927584E-23
   9.492000     -3.3307269E-23
   9.504000     -3.9627913E-23
   9.516000     -4.4235587E-23
   9.528000     -4.6482461E-23
   9.540000     -4.5775541E-23
   9.552000     -4.1630172E-23
   9.564000     -3.3725179E-23
   9.576000     -2.1955922E-23
   9.588000     -6.4808473E-24
   9.600000      1.2242978E-23
   9.612000      3.3440009E-23
   9.624000      5.6016262E-23
   9.636000      7.8582815E-23
   9.648000      9.9505116E-23
   9.660000      1.1697909E-22
   9.672000      1.2913307E-22
   9.684000      1.3415257E-22
   9.696000      1.3042270E-22
   9.708000      1.1668080E-22
   9.720000      9.2169751E-23
   9.732000      5.6781091E-23
   9.744000      1.1175091E-23
   9.756000     -4.3134425E-23
   9.768000     -1.0374313E-22
   9.780000     -1.6737794E-22
   9.792000     -2.2998585E-22
   9.804000     -2.8689483E-22
   9.816000     -3.3304710E-22
   9.828000     -3.6330031E-22
   9.840000     -3.7278535E-22
   9.852000     -3.5730512E-22
   9.864000     -3.1375116E-22
   9.876000     -2.4051122E-22
   9.888000     -1.3783634E-22
   9.900000     -8.1340371E-24
   9.912000      1.4384602E-22
   9.924000      3.1096516E-22
   9.936000      4.8381392E-22
   9.948000      6.5101401E-22
   9.960000      7.9971225E-22
   9.972000      9.1626156E-22
   9.984000      9.8707133E-22
   9.996000      9.9959143E-22
   10.00800      9.4338242E-22
   10.02000      8.1120720E-22
   10.03200      6.0006854E-22
   10.04400      3.1211020E-22
   10.05600     -4.4706066E-23
   10.06800     -4.5623221E-22
   10.08000     -9.0214951E-22
   10.09200     -1.3564287E-21
   10.10400     -1.7882716E-21
   10.11600     -2.1635428E-21
   10.12800     -2.4466686E-21
   10.14000     -2.6029346E-21
   10.15200     -2.6010890E-21
   10.16400     -2.4161049E-21
   10.17600     -2.0319367E-21
   10.18800     -1.4440676E-21
   10.20000     -6.6163832E-22
   10.21200      2.9106297E-22
   10.22400      1.3739499E-21
   10.23600      2.5315057E-21
   10.24800      3.6942961E-21
   10.26000      4.7817001E-21
   10.27200      5.7058486E-21
   10.28400      6.3766764E-21
   10.29600      6.7079016E-21
   10.30800      6.6236548E-21
   10.32000      6.0653838E-21
   10.33200      4.9985951E-21
   10.34400      3.4189281E-21
   10.35600      1.3570493E-21
   10.36800     -1.1181710E-21
   10.38000     -3.8986610E-21
   10.39200     -6.8387343E-21
   10.40400     -9.7595260E-21
   10.41600     -1.2456399E-20
   10.42800     -1.4709233E-20
   10.44000     -1.6295319E-20
   10.45200     -1.7004344E-20
   10.46400     -1.6654718E-20
   10.47600     -1.5110343E-20
   10.48800     -1.2296693E-20
   10.50000     -8.2150425E-21
   10.51200     -2.9535417E-21
   10.52400      3.3060204E-21
   10.53600      1.0286896E-20
   10.54800      1.7622345E-20
   10.56000      2.4867452E-20
   10.57200      3.1517969E-20
   10.58400      3.7035913E-20
   10.59600      4.0881091E-20
   10.60800      4.2547295E-20
   10.62000      4.1601356E-20
   10.63200      3.7722796E-20
   10.64400      3.0741531E-20
   10.65600      2.0670756E-20
   10.66800      7.7321612E-21
   10.68000     -7.6292645E-21
   10.69200     -2.4743328E-20
   10.70400     -4.2727462E-20
   10.71600     -6.0515513E-20
   10.72800     -7.6902710E-20
   10.74000     -9.0606081E-20
   10.75200     -1.0033831E-19
   10.76400     -1.0489205E-19
   10.77600     -1.0323052E-19
   10.78800     -9.4579224E-20
   10.80000     -7.8512772E-20
   10.81200     -5.5030762E-20
   10.82400     -2.4615927E-20
   10.83600      1.1731398E-20
   10.84800      5.2487896E-20
   10.86000      9.5635268E-20
   10.87200      1.3872402E-19
   10.88400      1.7897364E-19
   10.89600      2.1340758E-19
   10.90800      2.3901834E-19
   10.92000      2.5295654E-19
   10.93200      2.5273426E-19
   10.94400      2.3643203E-19
   10.95600      2.0289597E-19
   10.96800      1.5191190E-19
   10.98000      8.4341843E-20
   10.99200      2.2097431E-21
   11.00400     -9.1275380E-20
   11.01600     -1.9176842E-19
   11.02800     -2.9391485E-19
   11.04000     -3.9155703E-19
   11.05200     -4.7801682E-19
   11.06400     -5.4644637E-19
   11.07600     -5.9023286E-19
   11.08800     -6.0343953E-19
   11.10000     -5.8125878E-19
   11.11200     -5.2045118E-19
   11.12400     -4.1974151E-19
   11.13600     -2.8014185E-19
   11.14800     -1.0517322E-19
   11.16000      9.9039976E-20
   11.17200      3.2382376E-19
   11.18400      5.5817036E-19
   11.19600      7.8912239E-19
   11.20800      1.0023210E-18
   11.22000      1.1827043E-18
   11.23200      1.3153306E-18
   11.24400      1.3862915E-18
   11.25600      1.3836694E-18
   11.26800      1.2984874E-18
   11.28000      1.1255943E-18
   11.29200      8.6442158E-19
   11.30400      5.1955736E-19
   11.31600      1.0107869E-19
   11.32800     -3.7540219E-19
   11.34000     -8.8901319E-19
   11.35200     -1.4142380E-18
   11.36400     -1.9218725E-18
   11.37600     -2.3803040E-18
   11.38800     -2.7570747E-18
   11.40000     -3.0206645E-18
   11.41200     -3.1424194E-18
   11.42400     -3.0985247E-18
   11.43600     -2.8719153E-18
   11.44800     -2.4540087E-18
   11.46000     -1.8461406E-18
   11.47200     -1.0605895E-18