 -0.1200000      0.0000000E+00
 -0.1080000      0.0000000E+00
 -9.6000001E-02  0.0000000E+00
 -8.3999999E-02  0.0000000E+00
 -7.1999997E-02  0.0000000E+00
 -5.9999999E-02  0.0000000E+00
 -4.8000000E-02  0.0000000E+00
 -3.5999998E-02  0.0000000E+00
 -2.4000000E-02  0.0000000E+00
 -1.2000000E-02  0.0000000E+00
  6.9388939E-18  0.0000000E+00
  1.2000000E-02  0.0000000E+00
  2.4000000E-02  0.0000000E+00
  3.5999998E-02  0.0000000E+00
  4.8000000E-02  0.0000000E+00
  5.9999999E-02  0.0000000E+00
  7.1999997E-02  0.0000000E+00
  8.3999999E-02  0.0000000E+00
  9.6000001E-02  0.0000000E+00
  0.1080000      0.0000000E+00
  0.1200000      0.0000000E+00
  0.1320000      0.0000000E+00
  0.1440000      0.0000000E+00
  0.1560000      0.0000000E+00
  0.1680000      0.0000000E+00
  0.1800000      0.0000000E+00
  0.1920000      0.0000000E+00
  0.2040000      0.0000000E+00
  0.2160000      0.0000000E+00
  0.2280000      0.0000000E+00
  0.2400000      0.0000000E+00
  0.2520000      0.0000000E+00
  0.2640000      0.0000000E+00
  0.2760000      0.0000000E+00
  0.2880000      0.0000000E+00
  0.3000000      0.0000000E+00
  0.3120000      0.0000000E+00
  0.3240000      0.0000000E+00
  0.3360000      0.0000000E+00
  0.3480000      0.0000000E+00
  0.3600000      0.0000000E+00
  0.3720000      0.0000000E+00
  0.3840000      0.0000000E+00
  0.3960000      0.0000000E+00
  0.4080000      0.0000000E+00
  0.4200000      0.0000000E+00
  0.4320000      0.0000000E+00
  0.4440000      0.0000000E+00
  0.4560000      0.0000000E+00
  0.4680000      0.0000000E+00
  0.4800000      0.0000000E+00
  0.4920000      0.0000000E+00
  0.5040000      0.0000000E+00
  0.5160000      0.0000000E+00
  0.5280000      0.0000000E+00
  0.5400000      0.0000000E+00
  0.5520000      0.0000000E+00
  0.5640000      0.0000000E+00
  0.5760000      0.0000000E+00
  0.5880000      0.0000000E+00
  0.6000000      0.0000000E+00
  0.6120000      0.0000000E+00
  0.6240000      0.0000000E+00
  0.6360000      0.0000000E+00
  0.6480000      0.0000000E+00
  0.6600000      0.0000000E+00
  0.6720000      0.0000000E+00
  0.6840000      0.0000000E+00
  0.6960000      0.0000000E+00
  0.7080000      0.0000000E+00
  0.7200000      0.0000000E+00
  0.7320000      0.0000000E+00
  0.7440000      0.0000000E+00
  0.7560000      0.0000000E+00
  0.7680000      0.0000000E+00
  0.7800000      0.0000000E+00
  0.7920000      0.0000000E+00
  0.8040000      0.0000000E+00
  0.8160000      0.0000000E+00
  0.8280000      0.0000000E+00
  0.8400000      0.0000000E+00
  0.8520000      0.0000000E+00
  0.8640000      0.0000000E+00
  0.8760000      0.0000000E+00
  0.8880000      0.0000000E+00
  0.9000000      0.0000000E+00
  0.9120000      0.0000000E+00
  0.9240000      0.0000000E+00
  0.9360000      0.0000000E+00
  0.9480000      0.0000000E+00
  0.9600000      0.0000000E+00
  0.9720000      0.0000000E+00
  0.9840000      0.0000000E+00
  0.9960000      0.0000000E+00
   1.008000      0.0000000E+00
   1.020000      0.0000000E+00
   1.032000      0.0000000E+00
   1.044000      0.0000000E+00
   1.056000      0.0000000E+00
   1.068000      0.0000000E+00
   1.080000      0.0000000E+00
   1.092000      0.0000000E+00
   1.104000      0.0000000E+00
   1.116000      0.0000000E+00
   1.128000      0.0000000E+00
   1.140000      0.0000000E+00
   1.152000      0.0000000E+00
   1.164000      0.0000000E+00
   1.176000      0.0000000E+00
   1.188000      0.0000000E+00
   1.200000      0.0000000E+00
   1.212000      0.0000000E+00
   1.224000      0.0000000E+00
   1.236000      0.0000000E+00
   1.248000      0.0000000E+00
   1.260000      0.0000000E+00
   1.272000      0.0000000E+00
   1.284000      0.0000000E+00
   1.296000      0.0000000E+00
   1.308000      0.0000000E+00
   1.320000      0.0000000E+00
   1.332000      0.0000000E+00
   1.344000      0.0000000E+00
   1.356000      0.0000000E+00
   1.368000      0.0000000E+00
   1.380000      0.0000000E+00
   1.392000      0.0000000E+00
   1.404000      0.0000000E+00
   1.416000      0.0000000E+00
   1.428000      0.0000000E+00
   1.440000      0.0000000E+00
   1.452000      0.0000000E+00
   1.464000      0.0000000E+00
   1.476000      0.0000000E+00
   1.488000      0.0000000E+00
   1.500000      0.0000000E+00
   1.512000      0.0000000E+00
   1.524000      0.0000000E+00
   1.536000      0.0000000E+00
   1.548000      0.0000000E+00
   1.560000      0.0000000E+00
   1.572000      0.0000000E+00
   1.584000      0.0000000E+00
   1.596000      0.0000000E+00
   1.608000      0.0000000E+00
   1.620000      0.0000000E+00
   1.632000      0.0000000E+00
   1.644000      0.0000000E+00
   1.656000      0.0000000E+00
   1.668000      0.0000000E+00
   1.680000      0.0000000E+00
   1.692000      0.0000000E+00
   1.704000      0.0000000E+00
   1.716000      0.0000000E+00
   1.728000      0.0000000E+00
   1.740000      0.0000000E+00
   1.752000      0.0000000E+00
   1.764000      0.0000000E+00
   1.776000      0.0000000E+00
   1.788000      0.0000000E+00
   1.800000      0.0000000E+00
   1.812000      0.0000000E+00
   1.824000      0.0000000E+00
   1.836000      0.0000000E+00
   1.848000      0.0000000E+00
   1.860000      0.0000000E+00
   1.872000      0.0000000E+00
   1.884000      0.0000000E+00
   1.896000      0.0000000E+00
   1.908000      0.0000000E+00
   1.920000      0.0000000E+00
   1.932000      0.0000000E+00
   1.944000      0.0000000E+00
   1.956000      0.0000000E+00
   1.968000      0.0000000E+00
   1.980000      0.0000000E+00
   1.992000      0.0000000E+00
   2.004000      0.0000000E+00
   2.016000      0.0000000E+00
   2.028000      0.0000000E+00
   2.040000      0.0000000E+00
   2.052000      0.0000000E+00
   2.064000      0.0000000E+00
   2.076000      0.0000000E+00
   2.088000      0.0000000E+00
   2.100000      0.0000000E+00
   2.112000      0.0000000E+00
   2.124000      0.0000000E+00
   2.136000      0.0000000E+00
   2.148000      0.0000000E+00
   2.160000      0.0000000E+00
   2.172000      0.0000000E+00
   2.184000      0.0000000E+00
   2.196000      0.0000000E+00
   2.208000      0.0000000E+00
   2.220000      0.0000000E+00
   2.232000      0.0000000E+00
   2.244000      0.0000000E+00
   2.256000      0.0000000E+00
   2.268000      0.0000000E+00
   2.280000      0.0000000E+00
   2.292000      0.0000000E+00
   2.304000      0.0000000E+00
   2.316000      0.0000000E+00
   2.328000      0.0000000E+00
   2.340000      0.0000000E+00
   2.352000      0.0000000E+00
   2.364000      0.0000000E+00
   2.376000      0.0000000E+00
   2.388000      0.0000000E+00
   2.400000      0.0000000E+00
   2.412000      0.0000000E+00
   2.424000      0.0000000E+00
   2.436000      0.0000000E+00
   2.448000      0.0000000E+00
   2.460000      0.0000000E+00
   2.472000      0.0000000E+00
   2.484000      0.0000000E+00
   2.496000      0.0000000E+00
   2.508000      0.0000000E+00
   2.520000      0.0000000E+00
   2.532000      0.0000000E+00
   2.544000      0.0000000E+00
   2.556000      0.0000000E+00
   2.568000      0.0000000E+00
   2.580000      0.0000000E+00
   2.592000      0.0000000E+00
   2.604000      0.0000000E+00
   2.616000      0.0000000E+00
   2.628000      0.0000000E+00
   2.640000      0.0000000E+00
   2.652000      0.0000000E+00
   2.664000      0.0000000E+00
   2.676000      0.0000000E+00
   2.688000      0.0000000E+00
   2.700000      0.0000000E+00
   2.712000      0.0000000E+00
   2.724000      0.0000000E+00
   2.736000      0.0000000E+00
   2.748000      0.0000000E+00
   2.760000      0.0000000E+00
   2.772000      0.0000000E+00
   2.784000      0.0000000E+00
   2.796000      0.0000000E+00
   2.808000      0.0000000E+00
   2.820000      0.0000000E+00
   2.832000      0.0000000E+00
   2.844000      0.0000000E+00
   2.856000      0.0000000E+00
   2.868000      0.0000000E+00
   2.880000      0.0000000E+00
   2.892000      0.0000000E+00
   2.904000      0.0000000E+00
   2.916000      0.0000000E+00
   2.928000      0.0000000E+00
   2.940000      0.0000000E+00
   2.952000      0.0000000E+00
   2.964000      0.0000000E+00
   2.976000      0.0000000E+00
   2.988000      0.0000000E+00
   3.000000      0.0000000E+00
   3.012000      0.0000000E+00
   3.024000      0.0000000E+00
   3.036000      0.0000000E+00
   3.048000      0.0000000E+00
   3.060000      0.0000000E+00
   3.072000      0.0000000E+00
   3.084000      0.0000000E+00
   3.096000      0.0000000E+00
   3.108000      0.0000000E+00
   3.120000      0.0000000E+00
   3.132000      0.0000000E+00
   3.144000      0.0000000E+00
   3.156000      0.0000000E+00
   3.168000      0.0000000E+00
   3.180000      0.0000000E+00
   3.192000      0.0000000E+00
   3.204000      0.0000000E+00
   3.216000      0.0000000E+00
   3.228000      0.0000000E+00
   3.240000      0.0000000E+00
   3.252000      0.0000000E+00
   3.264000      0.0000000E+00
   3.276000      0.0000000E+00
   3.288000      0.0000000E+00
   3.300000      0.0000000E+00
   3.312000      0.0000000E+00
   3.324000      0.0000000E+00
   3.336000      0.0000000E+00
   3.348000      0.0000000E+00
   3.360000      0.0000000E+00
   3.372000      0.0000000E+00
   3.384000      0.0000000E+00
   3.396000      0.0000000E+00
   3.408000      0.0000000E+00
   3.420000      0.0000000E+00
   3.432000      0.0000000E+00
   3.444000      0.0000000E+00
   3.456000      0.0000000E+00
   3.468000      0.0000000E+00
   3.480000      0.0000000E+00
   3.492000      0.0000000E+00
   3.504000      0.0000000E+00
   3.516000      0.0000000E+00
   3.528000      0.0000000E+00
   3.540000      0.0000000E+00
   3.552000      0.0000000E+00
   3.564000      0.0000000E+00
   3.576000      0.0000000E+00
   3.588000      0.0000000E+00
   3.600000      0.0000000E+00
   3.612000      0.0000000E+00
   3.624000      0.0000000E+00
   3.636000      0.0000000E+00
   3.648000      0.0000000E+00
   3.660000      0.0000000E+00
   3.672000      0.0000000E+00
   3.684000      0.0000000E+00
   3.696000      0.0000000E+00
   3.708000      0.0000000E+00
   3.720000      0.0000000E+00
   3.732000      0.0000000E+00
   3.744000      0.0000000E+00
   3.756000      0.0000000E+00
   3.768000      0.0000000E+00
   3.780000      0.0000000E+00
   3.792000      0.0000000E+00
   3.804000      0.0000000E+00
   3.816000      0.0000000E+00
   3.828000      0.0000000E+00
   3.840000      0.0000000E+00
   3.852000      0.0000000E+00
   3.864000      0.0000000E+00
   3.876000      0.0000000E+00
   3.888000      0.0000000E+00
   3.900000      0.0000000E+00
   3.912000      0.0000000E+00
   3.924000      0.0000000E+00
   3.936000      0.0000000E+00
   3.948000      0.0000000E+00
   3.960000      0.0000000E+00
   3.972000      0.0000000E+00
   3.984000      0.0000000E+00
   3.996000      0.0000000E+00
   4.008000      0.0000000E+00
   4.020000      0.0000000E+00
   4.032000      0.0000000E+00
   4.044000      0.0000000E+00
   4.056000      0.0000000E+00
   4.068000      0.0000000E+00
   4.080000      0.0000000E+00
   4.092000      0.0000000E+00
   4.104000      0.0000000E+00
   4.116000      0.0000000E+00
   4.128000      0.0000000E+00
   4.140000      0.0000000E+00
   4.152000      0.0000000E+00
   4.164000      0.0000000E+00
   4.176000      0.0000000E+00
   4.188000      0.0000000E+00
   4.200000      0.0000000E+00
   4.212000      0.0000000E+00
   4.224000      0.0000000E+00
   4.236000      0.0000000E+00
   4.248000      0.0000000E+00
   4.260000      0.0000000E+00
   4.272000      0.0000000E+00
   4.284000      0.0000000E+00
   4.296000      0.0000000E+00
   4.308000      0.0000000E+00
   4.320000      0.0000000E+00
   4.332000      0.0000000E+00
   4.344000      0.0000000E+00
   4.356000      0.0000000E+00
   4.368000      0.0000000E+00
   4.380000      0.0000000E+00
   4.392000      0.0000000E+00
   4.404000      0.0000000E+00
   4.416000      0.0000000E+00
   4.428000      0.0000000E+00
   4.440000      0.0000000E+00
   4.452000      0.0000000E+00
   4.464000      0.0000000E+00
   4.476000      0.0000000E+00
   4.488000      0.0000000E+00
   4.500000      0.0000000E+00
   4.512000      0.0000000E+00
   4.524000      0.0000000E+00
   4.536000      0.0000000E+00
   4.548000      0.0000000E+00
   4.560000      0.0000000E+00
   4.572000      0.0000000E+00
   4.584000      0.0000000E+00
   4.596000      0.0000000E+00
   4.608000      0.0000000E+00
   4.620000      0.0000000E+00
   4.632000      0.0000000E+00
   4.644000      0.0000000E+00
   4.656000      0.0000000E+00
   4.668000      0.0000000E+00
   4.680000      0.0000000E+00
   4.692000      0.0000000E+00
   4.704000      0.0000000E+00
   4.716000      0.0000000E+00
   4.728000      0.0000000E+00
   4.740000      0.0000000E+00
   4.752000      0.0000000E+00
   4.764000      0.0000000E+00
   4.776000      0.0000000E+00
   4.788000      0.0000000E+00
   4.800000      0.0000000E+00
   4.812000      0.0000000E+00
   4.824000      0.0000000E+00
   4.836000      0.0000000E+00
   4.848000      0.0000000E+00
   4.860000      0.0000000E+00
   4.872000      0.0000000E+00
   4.884000      0.0000000E+00
   4.896000      0.0000000E+00
   4.908000      0.0000000E+00
   4.920000      0.0000000E+00
   4.932000      0.0000000E+00
   4.944000      0.0000000E+00
   4.956000      0.0000000E+00
   4.968000      0.0000000E+00
   4.980000      0.0000000E+00
   4.992000      0.0000000E+00
   5.004000      0.0000000E+00
   5.016000      0.0000000E+00
   5.028000      0.0000000E+00
   5.040000      0.0000000E+00
   5.052000      0.0000000E+00
   5.064000      0.0000000E+00
   5.076000      0.0000000E+00
   5.088000      0.0000000E+00
   5.100000      0.0000000E+00
   5.112000      0.0000000E+00
   5.124000      0.0000000E+00
   5.136000      0.0000000E+00
   5.148000      0.0000000E+00
   5.160000      0.0000000E+00
   5.172000      0.0000000E+00
   5.184000      0.0000000E+00
   5.196000      0.0000000E+00
   5.208000      0.0000000E+00
   5.220000      0.0000000E+00
   5.232000      0.0000000E+00
   5.244000      0.0000000E+00
   5.256000      0.0000000E+00
   5.268000      0.0000000E+00
   5.280000      0.0000000E+00
   5.292000      0.0000000E+00
   5.304000      0.0000000E+00
   5.316000      0.0000000E+00
   5.328000      0.0000000E+00
   5.340000      0.0000000E+00
   5.352000      0.0000000E+00
   5.364000      0.0000000E+00
   5.376000      0.0000000E+00
   5.388000      0.0000000E+00
   5.400000      0.0000000E+00
   5.412000      0.0000000E+00
   5.424000      0.0000000E+00
   5.436000      0.0000000E+00
   5.448000      0.0000000E+00
   5.460000      0.0000000E+00
   5.472000      0.0000000E+00
   5.484000      0.0000000E+00
   5.496000      0.0000000E+00
   5.508000      0.0000000E+00
   5.520000      0.0000000E+00
   5.532000      0.0000000E+00
   5.544000      0.0000000E+00
   5.556000      0.0000000E+00
   5.568000      0.0000000E+00
   5.580000      0.0000000E+00
   5.592000      0.0000000E+00
   5.604000      0.0000000E+00
   5.616000      0.0000000E+00
   5.628000      0.0000000E+00
   5.640000     -2.8107180E-38
   5.652000      0.0000000E+00
   5.664000      5.9374255E-38
   5.676000      1.6641613E-37
   5.688000      2.2420926E-37
   5.700000      1.9604206E-37
   5.712000      3.9277793E-38
   5.724000     -2.0425315E-37
   5.736000     -5.4507770E-37
   5.748000     -5.7835843E-37
   5.760000     -8.9113597E-38
   5.772000      5.9313054E-37
   5.784000      1.4561600E-36
   5.796000      1.8664097E-36
   5.808000      1.4528658E-36
   5.820000      3.4094939E-37
   5.832000     -8.8289050E-37
   5.844000     -1.9421075E-36
   5.856000     -2.1316667E-36
   5.868000     -1.1443687E-36
   5.880000      5.9899101E-37
   5.892000      2.5430998E-36
   5.904000      3.9733844E-36
   5.916000      4.0783767E-36
   5.928000      2.5123092E-36
   5.940000     -2.4874451E-37
   5.952000     -3.1148096E-36
   5.964000     -4.8285934E-36
   5.976000     -4.5365289E-36
   5.988000     -1.7488402E-36
   6.000000      3.0451144E-36
   6.012000      8.8152383E-36
   6.024000      1.3870799E-35
   6.036000      1.6473906E-35
   6.048000      1.5265529E-35
   6.060000      9.4298660E-36
   6.072000     -8.8457519E-37
   6.084000     -1.4566886E-35
   6.096000     -2.9630961E-35
   6.108000     -4.3773759E-35
   6.120000     -5.4264097E-35
   6.132000     -5.8862547E-35
   6.144000     -5.6139745E-35
   6.156000     -4.5500502E-35
   6.168000     -2.6992722E-35
   6.180000     -8.6120189E-37
   6.192000      3.2217416E-35
   6.204000      7.1323596E-35
   6.216000      1.1477297E-34
   6.228000      1.5968888E-34
   6.240000      2.0173329E-34
   6.252000      2.3526468E-34
   6.264000      2.5354903E-34
   6.276000      2.4946098E-34
   6.288000      2.1643797E-34
   6.300000      1.4953472E-34
   6.312000      4.6521076E-35
   6.324000     -9.1303097E-35
   6.336000     -2.5852468E-34
   6.348000     -4.4598820E-34
   6.360000     -6.4028787E-34
   6.372000     -8.2460176E-34
   6.384000     -9.7917981E-34
   6.396000     -1.0819318E-33
   6.408000     -1.1094797E-33
   6.420000     -1.0384955E-33
   6.432000     -8.4794257E-34
   6.444000     -5.2189690E-34
   6.456000     -5.2984174E-35
   6.468000      5.5394519E-34
   6.480000      1.2784639E-33
   6.492000      2.0821796E-33
   6.504000      2.9077155E-33
   6.516000      3.6797738E-33
   6.528000      4.3082290E-33
   6.540000      4.6933739E-33
   6.552000      4.7332191E-33
   6.564000      4.3326213E-33
   6.576000      3.4136374E-33
   6.588000      1.9270092E-33
   6.600000     -1.3618707E-34
   6.612000     -2.7333735E-33
   6.624000     -5.7610427E-33
   6.636000     -9.0484883E-33
   6.648000     -1.2356147E-32
   6.660000     -1.5380221E-32
   6.672000     -1.7764724E-32
   6.684000     -1.9121695E-32
   6.696000     -1.9059673E-32
   6.708000     -1.7219687E-32
   6.720000     -1.3317102E-32
   6.732000     -7.1867594E-33
   6.744000      1.1720068E-33
   6.756000      1.1554650E-32
   6.768000      2.3519741E-32
   6.780000      3.6371362E-32
   6.792000      4.9160546E-32
   6.804000      6.0710169E-32
   6.816000      6.9666660E-32
   6.828000      7.4580091E-32
   6.840000      7.4012363E-32
   6.852000      6.6670008E-32
   6.864000      5.1555572E-32
   6.876000      2.8128263E-32
   6.888000     -3.5387005E-33
   6.900000     -4.2618805E-32
   6.912000     -8.7427939E-32
   6.924000     -1.3537244E-31
   6.936000     -1.8296644E-31
   6.948000     -2.2593265E-31
   6.960000     -2.5939667E-31
   6.972000     -2.7817902E-31
   6.984000     -2.7718032E-31
   6.996000     -2.5184767E-31
   7.008000     -1.9869802E-31
   7.020000     -1.1586674E-31
   7.032000     -3.6378215E-33
   7.044000      1.3509376E-31
   7.056000      2.9448322E-31
   7.068000      4.6557711E-31
   7.080000      6.3638810E-31
   7.092000      7.9224840E-31
   7.104000      9.1647173E-31
   7.116000      9.9133454E-31
   7.128000      9.9936129E-31
   7.140000      9.2486880E-31
   7.152000      7.5569278E-31
   7.164000      4.8499021E-31
   7.176000      1.1297694E-31
   7.188000     -3.5155785E-31
   7.200000     -8.9013745E-31
   7.212000     -1.4740621E-30
   7.224000     -2.0646187E-30
   7.236000     -2.6141753E-30
   7.248000     -3.0682532E-30
   7.260000     -3.3686068E-30
   7.272000     -3.4572643E-30
   7.284000     -3.2813893E-30
   7.296000     -2.7987334E-30
   7.308000     -1.9833415E-30
   7.320000     -8.3109642E-31
   7.332000      6.3539302E-31
   7.344000      2.3630950E-30
   7.356000      4.2665946E-30
   7.368000      6.2283852E-30
   7.380000      8.1018358E-30
   7.392000      9.7171396E-30
   7.404000      1.0890347E-29
   7.416000      1.1435373E-29
   7.428000      1.1178589E-29
   7.440000      9.9753383E-30
   7.452000      7.7274230E-30
   7.464000      4.4003365E-30
   7.476000      3.8812023E-32
   7.488000     -5.2208846E-30
   7.500000     -1.1143558E-29
   7.512000     -1.7394107E-29
   7.524000     -2.3544315E-29
   7.536000     -2.9088370E-29
   7.548000     -3.3467568E-29
   7.560000     -3.6104027E-29
   7.572000     -3.6442470E-29
   7.584000     -3.3998372E-29
   7.596000     -2.8409838E-29
   7.608000     -1.9489918E-29
   7.620000     -7.2753110E-30
   7.632000      7.9330378E-30
   7.644000      2.5542137E-29
   7.656000      4.4656547E-29
   7.668000      6.4089532E-29
   7.680000      8.2398848E-29
   7.692000      9.7949198E-29
   7.704000      1.0900148E-28
   7.716000      1.1382703E-28
   7.728000      1.1084273E-28
   7.740000      9.8760592E-29
   7.752000      7.6743054E-29
   7.764000      4.4553236E-29
   7.776000      2.6875792E-30
   7.788000     -4.7522186E-29
   7.800000     -1.0385158E-28
   7.812000     -1.6318277E-28
   7.824000     -2.2157176E-28
   7.836000     -2.7439063E-28
   7.848000     -3.1654854E-28
   7.860000     -3.4278888E-28
   7.872000     -3.4805543E-28
   7.884000     -3.2791211E-28
   7.896000     -2.7899520E-28
   7.908000     -1.9947061E-28
   7.920000     -8.9462630E-29
   7.932000      4.8582817E-29
   7.944000      2.0963971E-28
   7.956000      3.8598732E-28
   7.968000      5.6727462E-28
   7.980000      7.4079268E-28
   7.992000      8.9197414E-28
   8.004000      1.0051258E-27
   8.016000      1.0643837E-27
   8.028000      1.0548626E-27
   8.040000      9.6395451E-28
   8.052000      7.8270342E-28
   8.064000      5.0717550E-28
   8.076000      1.3972113E-28
   8.088000     -3.0998632E-28
   8.100000     -8.2425093E-28
   8.112000     -1.3771128E-27
   8.124000     -1.9346702E-27
   8.136000     -2.4560499E-27
   8.148000     -2.8950802E-27
   8.160000     -3.2026844E-27
   8.172000     -3.3299525E-27
   8.184000     -3.2318064E-27
   8.196000     -2.8710986E-27
   8.208000     -2.2229365E-27
   8.220000     -1.2789510E-27
   8.232000     -5.1190339E-29
   8.244000      1.4247256E-27
   8.256000      3.0875669E-27
   8.268000      4.8499492E-27
   8.280000      6.5996165E-27
   8.292000      8.2028322E-27
   8.304000      9.5100333E-27
   8.316000      1.0363815E-26
   8.328000      1.0609096E-26
   8.340000      1.0105163E-26
   8.352000      8.7390828E-27
   8.364000      6.4397539E-27
   8.376000      3.1916835E-27
   8.388000     -9.5259971E-28
   8.400000     -5.8626972E-27
   8.412000     -1.1324329E-26
   8.424000     -1.7038391E-26
   8.436000     -2.2626195E-26
   8.448000     -2.7641757E-26
   8.460000     -3.1591688E-26
   8.472000     -3.3962681E-26
   8.484000     -3.4256168E-26
   8.496000     -3.2028936E-26
   8.508000     -2.6937865E-26
   8.520000     -1.8786254E-26
   8.532000     -7.5685033E-27
   8.544000      6.4905311E-27
   8.556000      2.2905646E-26
   8.568000      4.0915109E-26
   8.580000      5.9482202E-26
   8.592000      7.7318038E-26
   8.604000      9.2928302E-26
   8.616000      1.0468516E-25
   8.628000      1.1092414E-25
   8.640000      1.1006343E-25
   8.652000      1.0074119E-25
   8.664000      8.1963930E-26
   8.676000      5.3256665E-26
   8.688000      1.4803782E-26
   8.700000     -3.2432349E-26
   8.712000     -8.6628526E-26
   8.724000     -1.4506750E-25
   8.736000     -2.0416699E-25
   8.748000     -2.5958107E-25
   8.760000     -3.0638120E-25
   8.772000     -3.3931816E-25
   8.784000     -3.5316166E-25
   8.796000     -3.4310593E-25
   8.808000     -3.0522372E-25
   8.820000     -2.3694243E-25
   8.832000     -1.3750981E-25
   8.844000     -8.4108989E-27
   8.856000      1.4630627E-25
   8.868000      3.1983976E-25
   8.880000      5.0261957E-25
   8.892000      6.8250614E-25
   8.904000      8.4522817E-25
   8.916000      9.7507241E-25
   8.928000      1.0558218E-24
   8.940000      1.0719158E-24
   8.952000      1.0097867E-24
   8.964000      8.5929918E-25
   8.976000      6.1520279E-25
   8.988000      2.7848301E-25
   9.000000     -1.4251535E-25
   9.012000     -6.3132420E-25
   9.024000     -1.1630794E-24
   9.036000     -1.7048552E-24
   9.048000     -2.2167001E-24
   9.060000     -2.6534230E-24
   9.072000     -2.9671386E-24
   9.084000     -3.1105164E-24
   9.096000     -3.0406080E-24
   9.108000     -2.7230634E-24
   9.120000     -2.1364795E-24
   9.132000     -1.2765498E-24
   9.144000     -1.5966240E-25
   9.156000      1.1744613E-24
   9.168000      2.6614729E-24
   9.180000      4.2128127E-24
   9.192000      5.7181316E-24
   9.204000      7.0499119E-24
   9.216000      8.0703421E-24
   9.228000      8.6403249E-24
   9.240000      8.6303166E-24
   9.252000      7.9324792E-24
   9.264000      6.4734301E-24
   9.276000      4.2266848E-24
   9.288000      1.2237377E-24
   9.300000     -2.4373605E-24
   9.312000     -6.5870954E-24
   9.324000     -1.0984350E-23
   9.336000     -1.5321959E-23
   9.348000     -1.9238614E-23
   9.360000     -2.2337373E-23
   9.372000     -2.4210581E-23
   9.384000     -2.4470464E-23
   9.396000     -2.2783993E-23
   9.408000     -1.8910144E-23
   9.420000     -1.2736995E-23
   9.432000     -4.3156963E-24
   9.444000      6.1119515E-24
   9.456000      1.8095766E-23
   9.468000      3.0972535E-23
   9.480000      4.3877390E-23
   9.492000      5.5773299E-23
   9.504000      6.5499885E-23
   9.516000      7.1841373E-23
   9.528000      7.3612013E-23
   9.540000      6.9755663E-23
   9.552000      5.9454294E-23
   9.564000      4.2238835E-23
   9.576000      1.8094019E-23
   9.588000     -1.2452013E-23
   9.600000     -4.8263211E-23
   9.612000     -8.7565896E-23
   9.624000     -1.2796279E-22
   9.636000     -1.6649787E-22
   9.648000     -1.9977665E-22
   9.660000     -2.2414320E-22
   9.672000     -2.3591061E-22
   9.684000     -2.3163778E-22
   9.696000     -2.0843971E-22
   9.708000     -1.6431417E-22
   9.720000     -9.8462892E-23
   9.732000     -1.1582117E-23
   9.744000      9.3905030E-23
   9.756000      2.1370260E-22
   9.768000      3.4160898E-22
   9.780000      4.6962003E-22
   9.792000      5.8818595E-22
   9.804000      6.8662933E-22
   9.816000      7.5372416E-22
   9.828000      7.7842073E-22
   9.840000      7.5068923E-22
   9.852000      6.6244192E-22
   9.864000      5.0848010E-22
   9.876000      2.8740076E-22
   9.888000      2.3898855E-24
   9.900000     -3.3817424E-22
   9.912000     -7.2038536E-22
   9.924000     -1.1248113E-21
   9.936000     -1.5268924E-21
   9.948000     -1.8977749E-21
   9.960000     -2.2055951E-21
   9.972000     -2.4171978E-21
   9.984000     -2.5002439E-21
   9.996000     -2.4256165E-21
   10.00800     -2.1700130E-21
   10.02000     -1.7185679E-21
   10.03200     -1.0673242E-21
   10.04400     -2.2536360E-22
   10.05600      7.8361827E-22
   10.06800      1.9204834E-21
   10.08000      3.1307522E-21
   10.09200      4.3457739E-21
   10.10400      5.4850548E-21
   10.11600      6.4597672E-21
   10.12800      7.1773864E-21
   10.14000      7.5473098E-21
   10.15200      7.4872326E-21
   10.16400      6.9299544E-21
   10.17600      5.8302279E-21
   10.18800      4.1711927E-21
   10.20000      1.9698902E-21
   10.21200     -7.1863542E-22
   10.22400     -3.7991489E-21
   10.23600     -7.1363586E-21
   10.24800     -1.0557714E-20
   10.26000     -1.3859062E-20
   10.27200     -1.6813189E-20
   10.28400     -1.9181095E-20
   10.29600     -2.0725650E-20
   10.30800     -2.1227033E-20
   10.32000     -2.0499235E-20
   10.33200     -1.8406646E-20
   10.34400     -1.4879674E-20
   10.35600     -9.9282450E-21
   10.36800     -3.6520493E-21
   10.38000      3.7535986E-21
   10.39200      1.1997197E-20
   10.40400      2.0696503E-20
   10.41600      2.9390438E-20
   10.42800      3.7557428E-20
   10.44000      4.4639871E-20
   10.45200      5.0073870E-20
   10.46400      5.3322970E-20
   10.47600      5.3914253E-20
   10.48800      5.1474784E-20
   10.50000      4.5766113E-20
   10.51200      3.6714424E-20
   10.52400      2.4434007E-20
   10.53600      9.2417788E-21
   10.54800     -8.3389968E-21
   10.56000     -2.7587181E-20
   10.57200     -4.7605178E-20
   10.58400     -6.7353265E-20
   10.59600     -8.5696015E-20
   10.60800     -1.0145914E-19
   10.62000     -1.1349413E-19
   10.63200     -1.2074759E-19
   10.64400     -1.2233120E-19
   10.65600     -1.1758814E-19
   10.66800     -1.0615165E-19
   10.68000     -8.7991099E-20
   10.69200     -6.3442129E-20
   10.70400     -3.3217389E-20
   10.71600      1.6041671E-21
   10.72800      3.9610377E-20
   10.74000      7.9110882E-20
   10.75200      1.1821224E-19
   10.76400      1.5490963E-19
   10.77600      1.8719065E-19
   10.78800      2.1314529E-19
   10.80000      2.3107551E-19
   10.81200      2.3959754E-19
   10.82400      2.3773011E-19
   10.83600      2.2496195E-19
   10.84800      2.0129414E-19
   10.86000      1.6725268E-19
   10.87200      1.2387027E-19
   10.88400      7.2637495E-20
   10.89600      1.5425770E-20
   10.90800     -4.5612590E-20
   10.92000     -1.0816070E-19
   10.93200     -1.6986118E-19
   10.94400     -2.2843872E-19
   10.95600     -2.8181128E-19
   10.96800     -3.2818078E-19
   10.98000     -3.6609551E-19
   10.99200     -3.9447845E-19
   11.00400     -4.1261889E-19
   11.01600     -4.2012757E-19
   11.02800     -4.1685974E-19
   11.04000     -4.0281413E-19
   11.05200     -3.7801867E-19
   11.06400     -3.4241777E-19
   11.07600     -2.9577593E-19
   11.08800     -2.3761474E-19
   11.10000     -1.6719775E-19
   11.11200     -8.3576823E-20
   11.12400      1.4292214E-20
   11.13600      1.2736143E-19
   11.14800      2.5623416E-19
   11.16000      4.0085154E-19
   11.17200      5.6014231E-19
   11.18400      7.3166209E-19
   11.19600      9.1125711E-19
   11.20800      1.0927910E-18
   11.22000      1.2679744E-18
   11.23200      1.4263403E-18
   11.24400      1.5553996E-18
   11.25600      1.6410055E-18
   11.26800      1.6679469E-18
   11.28000      1.6207696E-18
   11.29200      1.4848126E-18
   11.30400      1.2474225E-18
   11.31600      8.9929494E-19
   11.32800      4.3586302E-19
   11.34000     -1.4135403E-19
   11.35200     -8.2355089E-19
   11.36400     -1.5936981E-18
   11.37600     -2.4259789E-18
   11.38800     -3.2857121E-18
   11.40000     -4.1298510E-18
   11.41200     -4.9081279E-18
   11.42400     -5.5648799E-18
   11.43600     -6.0415452E-18
   11.44800     -6.2797873E-18
   11.46000     -6.2251342E-18
   11.47200     -5.8309827E-18