 -0.1200000      0.0000000E+00
 -0.1080000      0.0000000E+00
 -9.6000001E-02  0.0000000E+00
 -8.3999999E-02  0.0000000E+00
 -7.1999997E-02  0.0000000E+00
 -5.9999999E-02  0.0000000E+00
 -4.8000000E-02  0.0000000E+00
 -3.5999998E-02  0.0000000E+00
 -2.4000000E-02  0.0000000E+00
 -1.2000000E-02  0.0000000E+00
  6.9388939E-18  0.0000000E+00
  1.2000000E-02  0.0000000E+00
  2.4000000E-02  0.0000000E+00
  3.5999998E-02  0.0000000E+00
  4.8000000E-02  0.0000000E+00
  5.9999999E-02  0.0000000E+00
  7.1999997E-02  0.0000000E+00
  8.3999999E-02  0.0000000E+00
  9.6000001E-02  0.0000000E+00
  0.1080000      0.0000000E+00
  0.1200000      0.0000000E+00
  0.1320000      0.0000000E+00
  0.1440000      0.0000000E+00
  0.1560000      0.0000000E+00
  0.1680000      0.0000000E+00
  0.1800000      0.0000000E+00
  0.1920000      0.0000000E+00
  0.2040000      0.0000000E+00
  0.2160000      0.0000000E+00
  0.2280000      0.0000000E+00
  0.2400000      0.0000000E+00
  0.2520000      0.0000000E+00
  0.2640000      0.0000000E+00
  0.2760000      0.0000000E+00
  0.2880000      0.0000000E+00
  0.3000000      0.0000000E+00
  0.3120000      0.0000000E+00
  0.3240000      0.0000000E+00
  0.3360000      0.0000000E+00
  0.3480000      0.0000000E+00
  0.3600000      0.0000000E+00
  0.3720000      0.0000000E+00
  0.3840000      0.0000000E+00
  0.3960000      0.0000000E+00
  0.4080000      0.0000000E+00
  0.4200000      0.0000000E+00
  0.4320000      0.0000000E+00
  0.4440000      0.0000000E+00
  0.4560000      0.0000000E+00
  0.4680000      0.0000000E+00
  0.4800000      0.0000000E+00
  0.4920000      0.0000000E+00
  0.5040000      0.0000000E+00
  0.5160000      0.0000000E+00
  0.5280000      0.0000000E+00
  0.5400000      0.0000000E+00
  0.5520000      0.0000000E+00
  0.5640000      0.0000000E+00
  0.5760000      0.0000000E+00
  0.5880000      0.0000000E+00
  0.6000000      0.0000000E+00
  0.6120000      0.0000000E+00
  0.6240000      0.0000000E+00
  0.6360000      0.0000000E+00
  0.6480000      0.0000000E+00
  0.6600000      0.0000000E+00
  0.6720000      0.0000000E+00
  0.6840000      0.0000000E+00
  0.6960000      0.0000000E+00
  0.7080000      0.0000000E+00
  0.7200000      0.0000000E+00
  0.7320000      0.0000000E+00
  0.7440000      0.0000000E+00
  0.7560000      0.0000000E+00
  0.7680000      0.0000000E+00
  0.7800000      0.0000000E+00
  0.7920000      0.0000000E+00
  0.8040000      0.0000000E+00
  0.8160000      0.0000000E+00
  0.8280000      0.0000000E+00
  0.8400000      0.0000000E+00
  0.8520000      0.0000000E+00
  0.8640000      0.0000000E+00
  0.8760000      0.0000000E+00
  0.8880000      0.0000000E+00
  0.9000000      0.0000000E+00
  0.9120000      0.0000000E+00
  0.9240000      0.0000000E+00
  0.9360000      0.0000000E+00
  0.9480000      0.0000000E+00
  0.9600000      0.0000000E+00
  0.9720000      0.0000000E+00
  0.9840000      0.0000000E+00
  0.9960000      0.0000000E+00
   1.008000      0.0000000E+00
   1.020000      0.0000000E+00
   1.032000      0.0000000E+00
   1.044000      0.0000000E+00
   1.056000      0.0000000E+00
   1.068000      0.0000000E+00
   1.080000      0.0000000E+00
   1.092000      0.0000000E+00
   1.104000      0.0000000E+00
   1.116000      0.0000000E+00
   1.128000      0.0000000E+00
   1.140000      0.0000000E+00
   1.152000      0.0000000E+00
   1.164000      0.0000000E+00
   1.176000      0.0000000E+00
   1.188000      0.0000000E+00
   1.200000      0.0000000E+00
   1.212000      0.0000000E+00
   1.224000      0.0000000E+00
   1.236000      0.0000000E+00
   1.248000      0.0000000E+00
   1.260000      0.0000000E+00
   1.272000      0.0000000E+00
   1.284000      0.0000000E+00
   1.296000      0.0000000E+00
   1.308000      0.0000000E+00
   1.320000      0.0000000E+00
   1.332000      0.0000000E+00
   1.344000      0.0000000E+00
   1.356000      0.0000000E+00
   1.368000      0.0000000E+00
   1.380000      0.0000000E+00
   1.392000      0.0000000E+00
   1.404000      0.0000000E+00
   1.416000      0.0000000E+00
   1.428000      0.0000000E+00
   1.440000      0.0000000E+00
   1.452000      0.0000000E+00
   1.464000      0.0000000E+00
   1.476000      0.0000000E+00
   1.488000      0.0000000E+00
   1.500000      0.0000000E+00
   1.512000      0.0000000E+00
   1.524000      0.0000000E+00
   1.536000      0.0000000E+00
   1.548000      0.0000000E+00
   1.560000      0.0000000E+00
   1.572000      0.0000000E+00
   1.584000      0.0000000E+00
   1.596000      0.0000000E+00
   1.608000      0.0000000E+00
   1.620000      0.0000000E+00
   1.632000      0.0000000E+00
   1.644000      0.0000000E+00
   1.656000      0.0000000E+00
   1.668000      0.0000000E+00
   1.680000      0.0000000E+00
   1.692000      0.0000000E+00
   1.704000      0.0000000E+00
   1.716000      0.0000000E+00
   1.728000      0.0000000E+00
   1.740000      0.0000000E+00
   1.752000      0.0000000E+00
   1.764000      0.0000000E+00
   1.776000      0.0000000E+00
   1.788000      0.0000000E+00
   1.800000      0.0000000E+00
   1.812000      0.0000000E+00
   1.824000      0.0000000E+00
   1.836000      0.0000000E+00
   1.848000      0.0000000E+00
   1.860000      0.0000000E+00
   1.872000      0.0000000E+00
   1.884000      0.0000000E+00
   1.896000      0.0000000E+00
   1.908000      0.0000000E+00
   1.920000      0.0000000E+00
   1.932000      0.0000000E+00
   1.944000      0.0000000E+00
   1.956000      0.0000000E+00
   1.968000      0.0000000E+00
   1.980000      0.0000000E+00
   1.992000      0.0000000E+00
   2.004000      0.0000000E+00
   2.016000      0.0000000E+00
   2.028000      0.0000000E+00
   2.040000      0.0000000E+00
   2.052000      0.0000000E+00
   2.064000      0.0000000E+00
   2.076000      0.0000000E+00
   2.088000      0.0000000E+00
   2.100000      0.0000000E+00
   2.112000      0.0000000E+00
   2.124000      0.0000000E+00
   2.136000      0.0000000E+00
   2.148000      0.0000000E+00
   2.160000      0.0000000E+00
   2.172000      0.0000000E+00
   2.184000      0.0000000E+00
   2.196000      0.0000000E+00
   2.208000      0.0000000E+00
   2.220000      0.0000000E+00
   2.232000      0.0000000E+00
   2.244000      0.0000000E+00
   2.256000      0.0000000E+00
   2.268000      0.0000000E+00
   2.280000      0.0000000E+00
   2.292000      0.0000000E+00
   2.304000      0.0000000E+00
   2.316000      0.0000000E+00
   2.328000      0.0000000E+00
   2.340000      0.0000000E+00
   2.352000      0.0000000E+00
   2.364000      0.0000000E+00
   2.376000      0.0000000E+00
   2.388000      0.0000000E+00
   2.400000      0.0000000E+00
   2.412000      0.0000000E+00
   2.424000      0.0000000E+00
   2.436000      0.0000000E+00
   2.448000      0.0000000E+00
   2.460000      0.0000000E+00
   2.472000      0.0000000E+00
   2.484000      0.0000000E+00
   2.496000      0.0000000E+00
   2.508000      0.0000000E+00
   2.520000      0.0000000E+00
   2.532000      0.0000000E+00
   2.544000      0.0000000E+00
   2.556000      0.0000000E+00
   2.568000      0.0000000E+00
   2.580000      0.0000000E+00
   2.592000      0.0000000E+00
   2.604000      0.0000000E+00
   2.616000      0.0000000E+00
   2.628000      0.0000000E+00
   2.640000      0.0000000E+00
   2.652000      0.0000000E+00
   2.664000      0.0000000E+00
   2.676000      0.0000000E+00
   2.688000      0.0000000E+00
   2.700000      0.0000000E+00
   2.712000      0.0000000E+00
   2.724000      0.0000000E+00
   2.736000      0.0000000E+00
   2.748000      0.0000000E+00
   2.760000      0.0000000E+00
   2.772000      0.0000000E+00
   2.784000      0.0000000E+00
   2.796000      0.0000000E+00
   2.808000      0.0000000E+00
   2.820000      0.0000000E+00
   2.832000      0.0000000E+00
   2.844000      0.0000000E+00
   2.856000      0.0000000E+00
   2.868000      0.0000000E+00
   2.880000      0.0000000E+00
   2.892000      0.0000000E+00
   2.904000      0.0000000E+00
   2.916000      0.0000000E+00
   2.928000      0.0000000E+00
   2.940000      0.0000000E+00
   2.952000      0.0000000E+00
   2.964000      0.0000000E+00
   2.976000      0.0000000E+00
   2.988000      0.0000000E+00
   3.000000      0.0000000E+00
   3.012000      0.0000000E+00
   3.024000      0.0000000E+00
   3.036000      0.0000000E+00
   3.048000      0.0000000E+00
   3.060000      0.0000000E+00
   3.072000      0.0000000E+00
   3.084000      0.0000000E+00
   3.096000      0.0000000E+00
   3.108000      0.0000000E+00
   3.120000      0.0000000E+00
   3.132000      0.0000000E+00
   3.144000      0.0000000E+00
   3.156000      0.0000000E+00
   3.168000      0.0000000E+00
   3.180000      0.0000000E+00
   3.192000      0.0000000E+00
   3.204000      0.0000000E+00
   3.216000      0.0000000E+00
   3.228000      0.0000000E+00
   3.240000      0.0000000E+00
   3.252000      0.0000000E+00
   3.264000      0.0000000E+00
   3.276000      0.0000000E+00
   3.288000      0.0000000E+00
   3.300000      0.0000000E+00
   3.312000      0.0000000E+00
   3.324000      0.0000000E+00
   3.336000      0.0000000E+00
   3.348000      0.0000000E+00
   3.360000      0.0000000E+00
   3.372000      0.0000000E+00
   3.384000      0.0000000E+00
   3.396000      0.0000000E+00
   3.408000      0.0000000E+00
   3.420000      0.0000000E+00
   3.432000      0.0000000E+00
   3.444000      0.0000000E+00
   3.456000      0.0000000E+00
   3.468000      0.0000000E+00
   3.480000      0.0000000E+00
   3.492000      0.0000000E+00
   3.504000      0.0000000E+00
   3.516000      0.0000000E+00
   3.528000      0.0000000E+00
   3.540000      0.0000000E+00
   3.552000      0.0000000E+00
   3.564000      0.0000000E+00
   3.576000      0.0000000E+00
   3.588000      0.0000000E+00
   3.600000      0.0000000E+00
   3.612000      0.0000000E+00
   3.624000      0.0000000E+00
   3.636000      0.0000000E+00
   3.648000      0.0000000E+00
   3.660000      0.0000000E+00
   3.672000      0.0000000E+00
   3.684000      0.0000000E+00
   3.696000      0.0000000E+00
   3.708000      0.0000000E+00
   3.720000      0.0000000E+00
   3.732000      0.0000000E+00
   3.744000      0.0000000E+00
   3.756000      0.0000000E+00
   3.768000      0.0000000E+00
   3.780000      0.0000000E+00
   3.792000      0.0000000E+00
   3.804000      0.0000000E+00
   3.816000      0.0000000E+00
   3.828000      0.0000000E+00
   3.840000      0.0000000E+00
   3.852000      0.0000000E+00
   3.864000      0.0000000E+00
   3.876000      0.0000000E+00
   3.888000      0.0000000E+00
   3.900000      0.0000000E+00
   3.912000      0.0000000E+00
   3.924000      0.0000000E+00
   3.936000      0.0000000E+00
   3.948000      0.0000000E+00
   3.960000      0.0000000E+00
   3.972000      0.0000000E+00
   3.984000      0.0000000E+00
   3.996000      0.0000000E+00
   4.008000      0.0000000E+00
   4.020000      0.0000000E+00
   4.032000      0.0000000E+00
   4.044000      0.0000000E+00
   4.056000      0.0000000E+00
   4.068000      0.0000000E+00
   4.080000      0.0000000E+00
   4.092000     -1.9965842E-38
   4.104000     -5.5747397E-38
   4.116000     -9.0109181E-38
   4.128000     -9.5356074E-38
   4.140000     -4.1514392E-38
   4.152000      7.6876786E-38
   4.164000      2.7769724E-37
   4.176000      4.5056189E-37
   4.188000      5.0268257E-37
   4.200000      4.2275807E-37
   4.212000      1.8573296E-37
   4.224000     -1.6331340E-37
   4.236000     -5.5540503E-37
   4.248000     -8.4389808E-37
   4.260000     -9.6837777E-37
   4.272000     -8.6689910E-37
   4.284000     -5.5377939E-37
   4.296000     -3.0414160E-38
   4.308000      6.8953413E-37
   4.320000      1.4649847E-36
   4.332000      2.1898863E-36
   4.344000      2.5725652E-36
   4.356000      2.4297787E-36
   4.368000      1.5898624E-36
   4.380000     -1.9407988E-37
   4.392000     -3.0811688E-36
   4.404000     -6.9626473E-36
   4.416000     -1.1550276E-35
   4.428000     -1.6285854E-35
   4.440000     -2.0546258E-35
   4.452000     -2.3527077E-35
   4.464000     -2.4333694E-35
   4.476000     -2.2068740E-35
   4.488000     -1.6022852E-35
   4.500000     -5.7940654E-36
   4.512000      8.7487415E-36
   4.524000      2.7220684E-35
   4.536000      4.8590752E-35
   4.548000      7.1160640E-35
   4.560000      9.2696000E-35
   4.572000      1.1043883E-34
   4.584000      1.2124859E-34
   4.596000      1.2185573E-34
   4.608000      1.0915701E-34
   4.620000      8.0535282E-35
   4.632000      3.4260899E-35
   4.644000     -3.0087039E-35
   4.656000     -1.1119373E-34
   4.668000     -2.0568245E-34
   4.680000     -3.0783125E-34
   4.692000     -4.0943717E-34
   4.704000     -4.9994638E-34
   4.716000     -5.6682393E-34
   4.728000     -5.9618846E-34
   4.740000     -5.7379663E-34
   4.752000     -4.8626206E-34
   4.764000     -3.2254888E-34
   4.776000     -7.5610517E-35
   4.788000      2.5590501E-34
   4.800000      6.6591925E-34
   4.812000      1.1394238E-33
   4.824000      1.6512544E-33
   4.836000      2.1652316E-33
   4.848000      2.6338872E-33
   4.860000      2.9989596E-33
   4.872000      3.1927991E-33
   4.884000      3.1410212E-33
   4.896000      2.7666338E-33
   4.908000      1.9959415E-33
   4.920000      7.6644798E-34
   4.932000     -9.6311191E-34
   4.944000     -3.2006735E-33
   4.956000     -5.9070487E-33
   4.968000     -8.9812199E-33
   4.980000     -1.2246031E-32
   4.992000     -1.5436224E-32
   5.004000     -1.8191331E-32
   5.016000     -2.0056690E-32
   5.028000     -2.0496022E-32
   5.040000     -1.8919214E-32
   5.052000     -1.4728456E-32
   5.064000     -7.3848030E-33
   5.076000      3.5046666E-33
   5.088000      1.8081583E-32
   5.100000      3.6118880E-32
   5.112000      5.6901297E-32
   5.124000      7.9118217E-32
   5.136000      1.0078746E-31
   5.148000      1.1923193E-31
   5.160000      1.3113274E-31
   5.172000      1.3268190E-31
   5.184000      1.1985324E-31
   5.196000      8.8802386E-32
   5.208000      3.6394345E-32
   5.220000     -3.9160166E-32
   5.232000     -1.3759820E-31
   5.244000     -2.5588960E-31
   5.256000     -3.8759815E-31
   5.268000     -5.2242303E-31
   5.280000     -6.4604018E-31
   5.292000     -7.4036626E-31
   5.304000     -7.8436055E-31
   5.316000     -7.5545312E-31
   5.328000     -6.3164230E-31
   5.340000     -3.9424007E-31
   5.352000     -3.1158076E-32
   5.364000      4.5947239E-31
   5.376000      1.0656589E-30
   5.388000      1.7583014E-30
   5.400000      2.4888454E-30
   5.412000      3.1883906E-30
   5.424000      3.7688264E-30
   5.436000      4.1265043E-30
   5.448000      4.1488345E-30
   5.460000      3.7239778E-30
   5.472000      2.7535146E-30
   5.484000      1.1676015E-30
   5.496000     -1.0583077E-30
   5.508000     -3.8865405E-30
   5.520000     -7.2018909E-30
   5.532000     -1.0800075E-29
   5.544000     -1.4382368E-29
   5.556000     -1.7558834E-29
   5.568000     -1.9862409E-29
   5.580000     -2.0775492E-29
   5.592000     -1.9769954E-29
   5.604000     -1.6360181E-29
   5.616000     -1.0167400E-29
   5.628000     -9.9174784E-31
   5.640000      1.1113270E-29
   5.652000      2.5770995E-29
   5.664000      4.2225193E-29
   5.676000      5.9306671E-29
   5.688000      7.5433049E-29
   5.700000      8.8651109E-29
   5.712000      9.6729591E-29
   5.724000      9.7307249E-29
   5.736000      8.8096676E-29
   5.748000      6.7139061E-29
   5.760000      3.3098355E-29
   5.772000     -1.4423703E-29
   5.784000     -7.4577514E-29
   5.796000     -1.4499307E-28
   5.808000     -2.2158262E-28
   5.820000     -2.9845927E-28
   5.832000     -3.6801182E-28
   5.844000     -4.2117228E-28
   5.856000     -4.4790245E-28
   5.868000     -4.3791280E-28
   5.880000     -3.8160761E-28
   5.892000     -2.7122532E-28
   5.904000     -1.0211810E-28
   5.916000      1.2591697E-28
   5.928000      4.0736938E-28
   5.940000      7.2994969E-28
   5.952000      1.0738863E-27
   5.964000      1.4117518E-27
   5.976000      1.7089820E-27
   5.988000      1.9252254E-27
   6.000000      2.0166256E-27
   6.012000      1.9390683E-27
   6.024000      1.6523510E-27
   6.036000      1.1251246E-27
   6.048000      3.4035145E-28
   6.060000     -6.9910381E-28
   6.072000     -1.9652418E-27
   6.084000     -3.4006519E-27
   6.096000     -4.9158588E-27
   6.108000     -6.3889795E-27
   6.120000     -7.6683597E-27
   6.132000     -8.5787483E-27
   6.144000     -8.9313784E-27
   6.156000     -8.5380835E-27
   6.168000     -7.2291945E-27
   6.180000     -4.8745738E-27
   6.192000     -1.4066450E-27
   6.204000      3.1561791E-27
   6.216000      8.6877860E-27
   6.228000      1.4936850E-26
   6.240000      2.1516286E-26
   6.252000      2.7902543E-26
   6.264000      3.3447447E-26
   6.276000      3.7404832E-26
   6.288000      3.8973513E-26
   6.300000      3.7356866E-26
   6.312000      3.1838026E-26
   6.324000      2.1867824E-26
   6.336000      7.1606884E-27
   6.348000     -1.2208254E-26
   6.360000     -3.5713545E-26
   6.372000     -6.2307550E-26
   6.384000     -9.0377748E-26
   6.396000     -1.1774476E-25
   6.408000     -1.4171218E-25
   6.420000     -1.5917697E-25
   6.432000     -1.6680656E-25
   6.444000     -1.6128334E-25
   6.456000     -1.3961212E-25
   6.468000     -9.9478491E-26
   6.480000     -3.9638637E-26
   6.492000      3.9687161E-26
   6.504000      1.3645214E-25
   6.516000      2.4649310E-25
   6.528000      3.6335791E-25
   6.540000      4.7829657E-25
   6.552000      5.8045840E-25
   6.564000      6.5733003E-25
   6.576000      6.9543660E-25
   6.588000      6.8130815E-25
   6.600000      6.0269264E-25
   6.612000      4.4996705E-25
   6.624000      2.1766967E-25
   6.636000     -9.3953901E-26
   6.648000     -4.7752699E-25
   6.660000     -9.1739849E-25
   6.672000     -1.3889522E-24
   6.684000     -1.8585441E-24
   6.696000     -2.2842268E-24
   6.708000     -2.6173933E-24
   6.720000     -2.8054181E-24
   6.732000     -2.7953073E-24
   6.744000     -2.5382777E-24
   6.756000     -1.9950914E-24
   6.768000     -1.1418508E-24
   6.780000      2.4138953E-26
   6.792000      1.4789467E-24
   6.804000      3.1676084E-24
   6.816000      5.0013714E-24
   6.828000      6.8572231E-24
   6.840000      8.5802965E-24
   6.852000      9.9896170E-24
   6.864000      1.0887487E-23
   6.876000      1.1072561E-23
   6.888000      1.0356325E-23
   6.900000      8.5823759E-24
   6.912000      5.6474702E-24
   6.924000      1.5229550E-24
   6.936000     -3.7251814E-24
   6.948000     -9.9196805E-24
   6.960000     -1.6761018E-23
   6.972000     -2.3824279E-23
   6.984000     -3.0565993E-23
   6.996000     -3.6342582E-23
   7.008000     -4.0441579E-23
   7.020000     -4.2125781E-23
   7.032000     -4.0689613E-23
   7.044000     -3.5525663E-23
   7.056000     -2.6198080E-23
   7.068000     -1.2518191E-23
   7.080000      5.3834846E-24
   7.092000      2.6995688E-23
   7.104000      5.1382799E-23
   7.116000      7.7166803E-23
   7.128000      1.0254193E-22
   7.140000      1.2532807E-22
   7.152000      1.4306699E-22
   7.164000      1.5316272E-22
   7.176000      1.5306451E-22
   7.188000      1.4048600E-22
   7.200000      1.1365100E-22
   7.212000      7.1551047E-23
   7.224000      1.4196440E-23
   7.236000     -5.7161379E-23
   7.248000     -1.3986033E-22
   7.260000     -2.2973629E-22
   7.272000     -3.2113397E-22
   7.284000     -4.0704082E-22
   7.296000     -4.7935980E-22
   7.308000     -5.2932759E-22
   7.320000     -5.4807607E-22
   7.332000     -5.2732158E-22
   7.344000     -4.6015319E-22
   7.356000     -3.4187815E-22
   7.368000     -1.7086735E-22
   7.380000      5.0665475E-23
   7.392000      3.1602798E-22
   7.404000      6.1363720E-22
   7.416000      9.2691020E-22
   7.428000      1.2345296E-21
   7.440000      1.5111382E-21
   7.452000      1.7284983E-21
   7.464000      1.8571170E-21
   7.476000      1.8683054E-21
   7.488000      1.7365958E-21
   7.500000      1.4424024E-21
   7.512000      9.7476036E-22
   7.524000      3.3394936E-22
   7.536000     -4.6623356E-22
   7.548000     -1.3967949E-21
   7.560000     -2.4127138E-21
   7.572000     -3.4531923E-21
   7.584000     -4.4431801E-21
   7.596000     -5.2963147E-21
   7.608000     -5.9193206E-21
   7.620000     -6.2178205E-21
   7.632000     -6.1033800E-21
   7.644000     -5.5014894E-21
   7.656000     -4.3600399E-21
   7.668000     -2.6577473E-21
   7.680000     -4.1185241E-22
   7.692000      2.3156255E-21
   7.704000      5.4138482E-21
   7.716000      8.7220622E-21
   7.728000      1.2032098E-20
   7.740000      1.5094970E-20
   7.752000      1.7631835E-20
   7.764000      1.9349330E-20
   7.776000      1.9958923E-20
   7.788000      1.9199600E-20
   7.800000      1.6862750E-20
   7.812000      1.2817831E-20
   7.824000      7.0369725E-21
   7.836000     -3.8350439E-22
   7.848000     -9.2068651E-21
   7.860000     -1.9047218E-20
   7.872000     -2.9370305E-20
   7.884000     -3.9505510E-20
   7.896000     -4.8670231E-20
   7.908000     -5.6007087E-20
   7.920000     -6.0633483E-20
   7.932000     -6.1702123E-20
   7.944000     -5.8469921E-20
   7.956000     -5.0371777E-20
   7.968000     -3.7094556E-20
   7.980000     -1.8645927E-20
   7.992000      4.5879783E-21
   8.004000      3.1802277E-20
   8.016000      6.1756445E-20
   8.028000      9.2786213E-20
   8.040000      1.2284843E-19
   8.052000      1.4960131E-19
   8.064000      1.7052061E-19
   8.076000      1.8304934E-19
   8.088000      1.8477604E-19
   8.100000      1.7363382E-19
   8.112000      1.4810917E-19
   8.124000      1.0744748E-19
   8.136000      5.1839571E-20
   8.148000     -1.7426931E-20
   8.160000     -9.7868411E-20
   8.172000     -1.8577417E-19
   8.184000     -2.7625697E-19
   8.196000     -3.6339569E-19
   8.208000     -4.4047502E-19
   8.220000     -5.0032216E-19
   8.232000     -5.3573200E-19
   8.244000     -5.3996706E-19
   8.256000     -5.0730801E-19
   8.268000     -4.3362596E-19
   8.280000     -3.1693945E-19
   8.292000     -1.5791483E-19
   8.304000      3.9733424E-20
   8.316000      2.6898693E-19
   8.328000      5.1945371E-19
   8.340000      7.7751912E-19
   8.352000      1.0267436E-18
   8.364000      1.2485194E-18
   8.376000      1.4229839E-18
   8.388000      1.5301687E-18
   8.400000      1.5513434E-18
   8.412000      1.4704951E-18
   8.424000      1.2758657E-18
   8.436000      9.6145022E-19
   8.448000      5.2835164E-19
   8.460000     -1.4125426E-20
   8.472000     -6.4775340E-19
   8.484000     -1.3451442E-18
   8.496000     -2.0700873E-18
   8.508000     -2.7785317E-18
   8.520000     -3.4202504E-18
   8.532000     -3.9411847E-18
   8.544000     -4.2864214E-18
   8.556000     -4.4037061E-18
   8.568000     -4.2473437E-18
   8.580000     -3.7822945E-18
   8.592000     -2.9882224E-18
   8.604000     -1.8632231E-18
   8.616000     -4.2693777E-19
   8.628000      1.2772507E-18
   8.640000      3.1812281E-18
   8.652000      5.1926217E-18
   8.664000      7.1969354E-18
   8.676000      9.0614758E-18
   8.688000      1.0641086E-17
   8.700000      1.1785617E-17
   8.712000      1.2348912E-17
   8.724000      1.2198961E-17
   8.736000      1.1228770E-17
   8.748000      9.3673283E-18
   8.760000      6.5899945E-18
   8.772000      2.9275388E-18
   8.784000     -1.5269602E-18
   8.796000     -6.6141494E-18
   8.808000     -1.2108079E-17
   8.820000     -1.7720126E-17
   8.832000     -2.3107582E-17
   8.844000     -2.7887071E-17
   8.856000     -3.1652741E-17
   8.868000     -3.3998741E-17
   8.880000     -3.4545286E-17
   8.892000     -3.2967168E-17
   8.904000     -2.9023253E-17
   8.916000     -2.2585265E-17
   8.928000     -1.3663864E-17
   8.940000     -2.4299562E-18
   8.952000      1.0770903E-17
   8.964000      2.5412992E-17
   8.976000      4.0795552E-17
   8.988000      5.6059870E-17
   9.000000      7.0219104E-17
   9.012000      8.2200915E-17
   9.024000      9.0902193E-17
   9.036000      9.5254202E-17
   9.048000      9.4295718E-17
   9.060000      8.7250548E-17
   9.072000      7.3605416E-17
   9.084000      5.3183071E-17
   9.096000      2.6205434E-17
   9.108000     -6.6588163E-18
   9.120000     -4.4267672E-17
   9.132000     -8.5004997E-17
   9.144000     -1.2680955E-16
   9.156000     -1.6723648E-16
   9.168000     -2.0355218E-16
   9.180000     -2.3286180E-16
   9.192000     -2.5226603E-16
   9.204000     -2.5904155E-16
   9.216000     -2.5083788E-16
   9.228000     -2.2587984E-16
   9.240000     -1.8316443E-16
   9.252000     -1.2263879E-16
   9.264000     -4.5344923E-17
   9.276000      4.6482230E-17
   9.288000      1.4937658E-16
   9.300000      2.5867367E-16
   9.312000      3.6862262E-16
   9.324000      4.7258181E-16
   9.336000      5.6329809E-16
   9.348000      6.3326407E-16
   9.360000      6.7514317E-16
   9.372000      6.8224491E-16
   9.384000      6.4902862E-16
   9.396000      5.7160859E-16
   9.408000      4.4822935E-16
   9.420000      2.7967821E-16
   9.432000      6.9600128E-17
   9.444000     -1.7531754E-16
   9.456000     -4.4532005E-16
   9.468000     -7.2774387E-16
   9.480000     -1.0073743E-15
   9.492000     -1.2670084E-15
   9.504000     -1.4882167E-15
   9.516000     -1.6522840E-15
   9.528000     -1.7412994E-15
   9.540000     -1.7393451E-15
   9.552000     -1.6337307E-15
   9.564000     -1.4162000E-15
   9.576000     -1.0840376E-15
   9.588000     -6.4099102E-16
   9.600000     -9.7931938E-17
   9.612000      5.2682029E-16
   9.624000      1.2075777E-15
   9.636000      1.9118133E-15
   9.648000      2.6011698E-15
   9.660000      3.2329511E-15
   9.672000      3.7620710E-15
   9.684000      4.1434057E-15
   9.696000      4.3344573E-15
   9.708000      4.2982191E-15
   9.720000      4.0060931E-15
   9.732000      3.4406953E-15
   9.744000      2.5983667E-15
   9.756000      1.4912071E-15
   9.768000      1.4844456E-16
   9.780000     -1.3830261E-15
   9.792000     -3.0390721E-15
   9.804000     -4.7398236E-15
   9.816000     -6.3922904E-15
   9.828000     -7.8940963E-15
   9.840000     -9.1382395E-15
   9.852000     -1.0018746E-14
   9.864000     -1.0436994E-14
   9.876000     -1.0308415E-14
   9.888000     -9.5692455E-15
   9.900000     -8.1829244E-15
   9.912000     -6.1457212E-15
   9.924000     -3.4911712E-15
   9.936000     -2.9289301E-16
   9.948000      3.3345637E-15
   9.960000      7.2371554E-15
   9.972000      1.1225266E-14
   9.984000      1.5080200E-14
   9.996000      1.8563191E-14
   10.00800      2.1426720E-14
   10.02000      2.3427762E-14
   10.03200      2.4342460E-14
   10.04400      2.3981507E-14
   10.05600      2.2205443E-14
   10.06800      1.8938988E-14
   10.08000      1.4183397E-14
   10.09200      8.0259387E-15
   10.10400      6.4550507E-16
   10.11600     -7.6863818E-15
   10.12800     -1.6609847E-14
   10.14000     -2.5686601E-14
   10.15200     -3.4415670E-14
   10.16400     -4.2254706E-14
   10.17600     -4.8646322E-14
   10.18800     -5.3048491E-14
   10.20000     -5.4967813E-14
   10.21200     -5.3993946E-14
   10.22400     -4.9833388E-14
   10.23600     -4.2340568E-14
   10.24800     -3.1544039E-14
   10.26000     -1.7665701E-14
   10.27200     -1.1310668E-15
   10.28400      1.7431089E-14
   10.29600      3.7200965E-14
   10.30800      5.7192532E-14
   10.32000      7.6290923E-14
   10.33200      9.3301736E-14
   10.34400      1.0701077E-13
   10.35600      1.1625186E-13
   10.36800      1.1997979E-13
   10.38000      1.1734468E-13
   10.39200      1.0776361E-13
   10.40400      9.0984905E-14
   10.41600      6.7140541E-14
   10.42800      3.6782297E-14
   10.44000      8.9751897E-16
   10.45200     -3.9098543E-14
   10.46400     -8.1396160E-14
   10.47600     -1.2385115E-13
   10.48800     -1.6407104E-13
   10.50000     -1.9952517E-13
   10.51200     -2.2767495E-13
   10.52400     -2.4611891E-13
   10.53600     -2.5274566E-13
   10.54800     -2.4588678E-13
   10.56000     -2.2446040E-13
   10.57200     -1.8809661E-13
   10.58400     -1.3723510E-13
   10.59600     -7.3186269E-14
   10.60800      1.8510677E-15
   10.62000      8.4821608E-14
   10.63200      1.7189798E-13
   10.64400      2.5861835E-13
   10.65600      3.4007484E-13
   10.66800      4.1114673E-13
   10.68000      4.6676996E-13
   10.69200      5.0223053E-13
   10.70400      5.1346747E-13
   10.71600      4.9736918E-13
   10.72800      4.5204462E-13
   10.74000      3.7705191E-13
   10.75200      2.7356719E-13
   10.76400      1.4447757E-13
   10.77600     -5.6141301E-15
   10.78800     -1.7048109E-13
   10.80000     -3.4246531E-13
   10.81200     -5.1276957E-13
   10.82400     -6.7184095E-13
   10.83600     -8.0983321E-13
   10.84800     -9.1712846E-13
   10.86000     -9.8489370E-13
   10.87200     -1.0056446E-12
   10.88400     -9.7378507E-13
   10.89600     -8.8608922E-13
   10.90800     -7.4209497E-13
   10.92000     -5.4437791E-13
   10.93200     -2.9868116E-13
   10.94400     -1.3880497E-14
   10.95600      2.9822640E-13
   10.96800      6.2331021E-13
   10.98000      9.4507258E-13
   10.99200      1.2459647E-12
   11.00400      1.5080334E-12
   11.01600      1.7138596E-12
   11.02800      1.8475453E-12
   11.04000      1.8956965E-12
   11.05200      1.8483496E-12
   11.06400      1.6997870E-12
   11.07600      1.4491854E-12
   11.08800      1.1010540E-12
   11.10000      6.6541857E-13
   11.11200      1.5772443E-13
   11.12400     -4.0155582E-13
   11.13600     -9.8761299E-13
   11.14800     -1.5722726E-12
   11.16000     -2.1252156E-12
   11.17200     -2.6154012E-12
   11.18400     -3.0126301E-12
   11.19600     -3.2891754E-12
   11.20800     -3.4213992E-12
   11.22000     -3.3912710E-12
   11.23200     -3.1876979E-12
   11.24400     -2.8075903E-12
   11.25600     -2.2565862E-12
   11.26800     -1.5493785E-12
   11.28000     -7.0959883E-13
   11.29200      2.3075931E-13
   11.30400      1.2323796E-12
   11.31600      2.2500996E-12
   11.32800      3.2347759E-12
   11.34000      4.1354676E-12
   11.35200      4.9018480E-12
   11.36400      5.4867335E-12
   11.37600      5.8486176E-12
   11.38800      5.9540766E-12
   11.40000      5.7799286E-12
   11.41200      5.3150201E-12
   11.42400      4.5615326E-12
   11.43600      3.5357242E-12
   11.44800      2.2680280E-12
   11.46000      8.0247929E-13
   11.47200     -8.0454919E-13