 -0.1200000      0.0000000E+00
 -0.1080000      0.0000000E+00
 -9.6000001E-02  0.0000000E+00
 -8.3999999E-02  0.0000000E+00
 -7.1999997E-02  0.0000000E+00
 -5.9999999E-02  0.0000000E+00
 -4.8000000E-02  0.0000000E+00
 -3.5999998E-02  0.0000000E+00
 -2.4000000E-02  0.0000000E+00
 -1.2000000E-02  0.0000000E+00
  6.9388939E-18  0.0000000E+00
  1.2000000E-02  0.0000000E+00
  2.4000000E-02  0.0000000E+00
  3.5999998E-02  0.0000000E+00
  4.8000000E-02  0.0000000E+00
  5.9999999E-02  0.0000000E+00
  7.1999997E-02  0.0000000E+00
  8.3999999E-02  0.0000000E+00
  9.6000001E-02  0.0000000E+00
  0.1080000      0.0000000E+00
  0.1200000      0.0000000E+00
  0.1320000      0.0000000E+00
  0.1440000      0.0000000E+00
  0.1560000      0.0000000E+00
  0.1680000      0.0000000E+00
  0.1800000      0.0000000E+00
  0.1920000      0.0000000E+00
  0.2040000      0.0000000E+00
  0.2160000      0.0000000E+00
  0.2280000      0.0000000E+00
  0.2400000      0.0000000E+00
  0.2520000      0.0000000E+00
  0.2640000      0.0000000E+00
  0.2760000      0.0000000E+00
  0.2880000      0.0000000E+00
  0.3000000      0.0000000E+00
  0.3120000      0.0000000E+00
  0.3240000      0.0000000E+00
  0.3360000      0.0000000E+00
  0.3480000      0.0000000E+00
  0.3600000      0.0000000E+00
  0.3720000      0.0000000E+00
  0.3840000      0.0000000E+00
  0.3960000      0.0000000E+00
  0.4080000      0.0000000E+00
  0.4200000      0.0000000E+00
  0.4320000      0.0000000E+00
  0.4440000      0.0000000E+00
  0.4560000      0.0000000E+00
  0.4680000      0.0000000E+00
  0.4800000      0.0000000E+00
  0.4920000      0.0000000E+00
  0.5040000      0.0000000E+00
  0.5160000      0.0000000E+00
  0.5280000      0.0000000E+00
  0.5400000      0.0000000E+00
  0.5520000      0.0000000E+00
  0.5640000      0.0000000E+00
  0.5760000      0.0000000E+00
  0.5880000      0.0000000E+00
  0.6000000      0.0000000E+00
  0.6120000      0.0000000E+00
  0.6240000      0.0000000E+00
  0.6360000      0.0000000E+00
  0.6480000      0.0000000E+00
  0.6600000      0.0000000E+00
  0.6720000      0.0000000E+00
  0.6840000      0.0000000E+00
  0.6960000      0.0000000E+00
  0.7080000      0.0000000E+00
  0.7200000      0.0000000E+00
  0.7320000      0.0000000E+00
  0.7440000      0.0000000E+00
  0.7560000      0.0000000E+00
  0.7680000      0.0000000E+00
  0.7800000      0.0000000E+00
  0.7920000      0.0000000E+00
  0.8040000      0.0000000E+00
  0.8160000      0.0000000E+00
  0.8280000      0.0000000E+00
  0.8400000      0.0000000E+00
  0.8520000      0.0000000E+00
  0.8640000      0.0000000E+00
  0.8760000      0.0000000E+00
  0.8880000      0.0000000E+00
  0.9000000      0.0000000E+00
  0.9120000      0.0000000E+00
  0.9240000      0.0000000E+00
  0.9360000      0.0000000E+00
  0.9480000      0.0000000E+00
  0.9600000      0.0000000E+00
  0.9720000      0.0000000E+00
  0.9840000      0.0000000E+00
  0.9960000      0.0000000E+00
   1.008000      0.0000000E+00
   1.020000      0.0000000E+00
   1.032000      0.0000000E+00
   1.044000      0.0000000E+00
   1.056000      0.0000000E+00
   1.068000      0.0000000E+00
   1.080000      0.0000000E+00
   1.092000      0.0000000E+00
   1.104000      0.0000000E+00
   1.116000      0.0000000E+00
   1.128000      0.0000000E+00
   1.140000      0.0000000E+00
   1.152000      0.0000000E+00
   1.164000      0.0000000E+00
   1.176000      0.0000000E+00
   1.188000      0.0000000E+00
   1.200000      0.0000000E+00
   1.212000      0.0000000E+00
   1.224000      0.0000000E+00
   1.236000      0.0000000E+00
   1.248000      0.0000000E+00
   1.260000      0.0000000E+00
   1.272000      0.0000000E+00
   1.284000      0.0000000E+00
   1.296000      0.0000000E+00
   1.308000      0.0000000E+00
   1.320000      0.0000000E+00
   1.332000      0.0000000E+00
   1.344000      0.0000000E+00
   1.356000      0.0000000E+00
   1.368000      0.0000000E+00
   1.380000      0.0000000E+00
   1.392000      0.0000000E+00
   1.404000      0.0000000E+00
   1.416000      0.0000000E+00
   1.428000      0.0000000E+00
   1.440000      0.0000000E+00
   1.452000      0.0000000E+00
   1.464000      0.0000000E+00
   1.476000      0.0000000E+00
   1.488000      0.0000000E+00
   1.500000      0.0000000E+00
   1.512000      0.0000000E+00
   1.524000      0.0000000E+00
   1.536000      0.0000000E+00
   1.548000      0.0000000E+00
   1.560000      0.0000000E+00
   1.572000      0.0000000E+00
   1.584000      0.0000000E+00
   1.596000      0.0000000E+00
   1.608000      0.0000000E+00
   1.620000      0.0000000E+00
   1.632000      0.0000000E+00
   1.644000      0.0000000E+00
   1.656000      0.0000000E+00
   1.668000      0.0000000E+00
   1.680000      0.0000000E+00
   1.692000      0.0000000E+00
   1.704000      0.0000000E+00
   1.716000      0.0000000E+00
   1.728000      0.0000000E+00
   1.740000      0.0000000E+00
   1.752000      0.0000000E+00
   1.764000      0.0000000E+00
   1.776000      0.0000000E+00
   1.788000      0.0000000E+00
   1.800000      0.0000000E+00
   1.812000      0.0000000E+00
   1.824000      0.0000000E+00
   1.836000      0.0000000E+00
   1.848000      0.0000000E+00
   1.860000      0.0000000E+00
   1.872000      0.0000000E+00
   1.884000      0.0000000E+00
   1.896000      0.0000000E+00
   1.908000      0.0000000E+00
   1.920000      0.0000000E+00
   1.932000      0.0000000E+00
   1.944000      0.0000000E+00
   1.956000      0.0000000E+00
   1.968000      0.0000000E+00
   1.980000      0.0000000E+00
   1.992000      0.0000000E+00
   2.004000      0.0000000E+00
   2.016000      0.0000000E+00
   2.028000      0.0000000E+00
   2.040000      0.0000000E+00
   2.052000      0.0000000E+00
   2.064000      0.0000000E+00
   2.076000      0.0000000E+00
   2.088000      0.0000000E+00
   2.100000      0.0000000E+00
   2.112000      0.0000000E+00
   2.124000      0.0000000E+00
   2.136000      0.0000000E+00
   2.148000      0.0000000E+00
   2.160000      0.0000000E+00
   2.172000      0.0000000E+00
   2.184000      0.0000000E+00
   2.196000      0.0000000E+00
   2.208000      0.0000000E+00
   2.220000      0.0000000E+00
   2.232000      0.0000000E+00
   2.244000      0.0000000E+00
   2.256000      0.0000000E+00
   2.268000      0.0000000E+00
   2.280000      0.0000000E+00
   2.292000      0.0000000E+00
   2.304000      0.0000000E+00
   2.316000      0.0000000E+00
   2.328000      0.0000000E+00
   2.340000      0.0000000E+00
   2.352000      0.0000000E+00
   2.364000      0.0000000E+00
   2.376000      0.0000000E+00
   2.388000      0.0000000E+00
   2.400000      0.0000000E+00
   2.412000      0.0000000E+00
   2.424000      0.0000000E+00
   2.436000      0.0000000E+00
   2.448000      0.0000000E+00
   2.460000      0.0000000E+00
   2.472000      0.0000000E+00
   2.484000      0.0000000E+00
   2.496000      0.0000000E+00
   2.508000      0.0000000E+00
   2.520000      0.0000000E+00
   2.532000      0.0000000E+00
   2.544000      0.0000000E+00
   2.556000      0.0000000E+00
   2.568000      0.0000000E+00
   2.580000      0.0000000E+00
   2.592000      0.0000000E+00
   2.604000      0.0000000E+00
   2.616000      0.0000000E+00
   2.628000      0.0000000E+00
   2.640000      0.0000000E+00
   2.652000      0.0000000E+00
   2.664000      0.0000000E+00
   2.676000      0.0000000E+00
   2.688000      0.0000000E+00
   2.700000      0.0000000E+00
   2.712000      0.0000000E+00
   2.724000      0.0000000E+00
   2.736000      0.0000000E+00
   2.748000      0.0000000E+00
   2.760000      0.0000000E+00
   2.772000      0.0000000E+00
   2.784000      0.0000000E+00
   2.796000      0.0000000E+00
   2.808000      0.0000000E+00
   2.820000      0.0000000E+00
   2.832000      0.0000000E+00
   2.844000      0.0000000E+00
   2.856000      0.0000000E+00
   2.868000      0.0000000E+00
   2.880000      0.0000000E+00
   2.892000      0.0000000E+00
   2.904000      0.0000000E+00
   2.916000      0.0000000E+00
   2.928000      0.0000000E+00
   2.940000      0.0000000E+00
   2.952000      0.0000000E+00
   2.964000      0.0000000E+00
   2.976000      0.0000000E+00
   2.988000      0.0000000E+00
   3.000000      0.0000000E+00
   3.012000      0.0000000E+00
   3.024000      0.0000000E+00
   3.036000      0.0000000E+00
   3.048000      0.0000000E+00
   3.060000      0.0000000E+00
   3.072000      0.0000000E+00
   3.084000      0.0000000E+00
   3.096000      0.0000000E+00
   3.108000      0.0000000E+00
   3.120000      0.0000000E+00
   3.132000      0.0000000E+00
   3.144000      0.0000000E+00
   3.156000      0.0000000E+00
   3.168000      0.0000000E+00
   3.180000      0.0000000E+00
   3.192000      0.0000000E+00
   3.204000      0.0000000E+00
   3.216000      0.0000000E+00
   3.228000      0.0000000E+00
   3.240000      0.0000000E+00
   3.252000      0.0000000E+00
   3.264000      0.0000000E+00
   3.276000      0.0000000E+00
   3.288000      0.0000000E+00
   3.300000      0.0000000E+00
   3.312000      0.0000000E+00
   3.324000      0.0000000E+00
   3.336000      0.0000000E+00
   3.348000      0.0000000E+00
   3.360000      0.0000000E+00
   3.372000      0.0000000E+00
   3.384000      0.0000000E+00
   3.396000      0.0000000E+00
   3.408000      0.0000000E+00
   3.420000      0.0000000E+00
   3.432000      0.0000000E+00
   3.444000      0.0000000E+00
   3.456000      0.0000000E+00
   3.468000      0.0000000E+00
   3.480000      0.0000000E+00
   3.492000      0.0000000E+00
   3.504000      0.0000000E+00
   3.516000      0.0000000E+00
   3.528000      0.0000000E+00
   3.540000      0.0000000E+00
   3.552000      0.0000000E+00
   3.564000      0.0000000E+00
   3.576000      0.0000000E+00
   3.588000      0.0000000E+00
   3.600000      0.0000000E+00
   3.612000      0.0000000E+00
   3.624000      0.0000000E+00
   3.636000      0.0000000E+00
   3.648000      0.0000000E+00
   3.660000      0.0000000E+00
   3.672000      0.0000000E+00
   3.684000      0.0000000E+00
   3.696000      0.0000000E+00
   3.708000      0.0000000E+00
   3.720000      0.0000000E+00
   3.732000      0.0000000E+00
   3.744000      0.0000000E+00
   3.756000      0.0000000E+00
   3.768000      0.0000000E+00
   3.780000      0.0000000E+00
   3.792000      0.0000000E+00
   3.804000      0.0000000E+00
   3.816000      0.0000000E+00
   3.828000      0.0000000E+00
   3.840000      0.0000000E+00
   3.852000      0.0000000E+00
   3.864000      0.0000000E+00
   3.876000      0.0000000E+00
   3.888000      0.0000000E+00
   3.900000      0.0000000E+00
   3.912000      0.0000000E+00
   3.924000      0.0000000E+00
   3.936000      0.0000000E+00
   3.948000      0.0000000E+00
   3.960000      0.0000000E+00
   3.972000      0.0000000E+00
   3.984000      0.0000000E+00
   3.996000      0.0000000E+00
   4.008000      0.0000000E+00
   4.020000      0.0000000E+00
   4.032000      0.0000000E+00
   4.044000      0.0000000E+00
   4.056000      0.0000000E+00
   4.068000      0.0000000E+00
   4.080000      0.0000000E+00
   4.092000      0.0000000E+00
   4.104000      0.0000000E+00
   4.116000      0.0000000E+00
   4.128000      0.0000000E+00
   4.140000      0.0000000E+00
   4.152000      0.0000000E+00
   4.164000      0.0000000E+00
   4.176000      0.0000000E+00
   4.188000      0.0000000E+00
   4.200000      0.0000000E+00
   4.212000      0.0000000E+00
   4.224000      0.0000000E+00
   4.236000      0.0000000E+00
   4.248000      0.0000000E+00
   4.260000      0.0000000E+00
   4.272000      0.0000000E+00
   4.284000      0.0000000E+00
   4.296000      0.0000000E+00
   4.308000      0.0000000E+00
   4.320000      0.0000000E+00
   4.332000      0.0000000E+00
   4.344000      0.0000000E+00
   4.356000      0.0000000E+00
   4.368000      0.0000000E+00
   4.380000      0.0000000E+00
   4.392000      0.0000000E+00
   4.404000      0.0000000E+00
   4.416000      0.0000000E+00
   4.428000      0.0000000E+00
   4.440000      0.0000000E+00
   4.452000      0.0000000E+00
   4.464000      0.0000000E+00
   4.476000      0.0000000E+00
   4.488000      0.0000000E+00
   4.500000      0.0000000E+00
   4.512000      0.0000000E+00
   4.524000      0.0000000E+00
   4.536000      0.0000000E+00
   4.548000      0.0000000E+00
   4.560000      0.0000000E+00
   4.572000      0.0000000E+00
   4.584000      0.0000000E+00
   4.596000      0.0000000E+00
   4.608000      0.0000000E+00
   4.620000      0.0000000E+00
   4.632000      0.0000000E+00
   4.644000      0.0000000E+00
   4.656000      0.0000000E+00
   4.668000      0.0000000E+00
   4.680000      0.0000000E+00
   4.692000      0.0000000E+00
   4.704000      0.0000000E+00
   4.716000      0.0000000E+00
   4.728000      0.0000000E+00
   4.740000      0.0000000E+00
   4.752000      0.0000000E+00
   4.764000      0.0000000E+00
   4.776000      0.0000000E+00
   4.788000      0.0000000E+00
   4.800000      0.0000000E+00
   4.812000      0.0000000E+00
   4.824000      0.0000000E+00
   4.836000      0.0000000E+00
   4.848000      0.0000000E+00
   4.860000      0.0000000E+00
   4.872000      0.0000000E+00
   4.884000      0.0000000E+00
   4.896000      0.0000000E+00
   4.908000      0.0000000E+00
   4.920000      0.0000000E+00
   4.932000      0.0000000E+00
   4.944000      0.0000000E+00
   4.956000      0.0000000E+00
   4.968000      0.0000000E+00
   4.980000      0.0000000E+00
   4.992000      1.3802109E-38
   5.004000      1.7217812E-38
   5.016000      1.5973859E-38
   5.028000      0.0000000E+00
   5.040000      0.0000000E+00
   5.052000      0.0000000E+00
   5.064000     -5.4755255E-38
   5.076000     -8.8586384E-38
   5.088000     -1.0814405E-37
   5.100000     -1.1317662E-37
   5.112000     -1.1280533E-37
   5.124000     -8.0565727E-38
   5.136000     -1.8111074E-38
   5.148000      3.6610696E-38
   5.160000      6.9128587E-38
   5.172000      8.3461740E-38
   5.184000      9.6786990E-38
   5.196000      9.5430511E-38
   5.208000      1.0780355E-37
   5.220000      1.4155213E-37
   5.232000      2.1391153E-37
   5.244000      3.0970425E-37
   5.256000      4.0619652E-37
   5.268000      4.3894641E-37
   5.280000      4.6177896E-37
   5.292000      5.0656540E-37
   5.304000      5.7476129E-37
   5.316000      6.2589608E-37
   5.328000      6.6515867E-37
   5.340000      7.5329635E-37
   5.352000      8.7128604E-37
   5.364000      9.9019507E-37
   5.376000      1.0708489E-36
   5.388000      1.0861631E-36
   5.400000      9.9552323E-37
   5.412000      8.0567209E-37
   5.424000      5.6926766E-37
   5.436000      3.1765649E-37
   5.448000      7.4971598E-38
   5.460000      0.0000000E+00
   5.472000      9.6254317E-38
   5.484000      3.0201352E-37
   5.496000      5.8838845E-37
   5.508000      9.0318982E-37
   5.520000      1.2366415E-36
   5.532000      1.5983055E-36
   5.544000      1.8948077E-36
   5.556000      2.2002097E-36
   5.568000      2.4311258E-36
   5.580000      2.6237408E-36
   5.592000      2.5878545E-36
   5.604000      2.3388400E-36
   5.616000      1.9833213E-36
   5.628000      1.5115258E-36
   5.640000      7.7716712E-37
   5.652000     -1.9509687E-37
   5.664000     -1.3536377E-36
   5.676000     -2.4907089E-36
   5.688000     -3.4530229E-36
   5.700000     -3.9099246E-36
   5.712000     -3.4723780E-36
   5.724000     -2.0538799E-36
   5.736000      7.0628568E-37
   5.748000      4.8808579E-36
   5.760000      1.0326117E-35
   5.772000      1.6862184E-35
   5.784000      2.3940573E-35
   5.796000      3.0575363E-35
   5.808000      3.5482699E-35
   5.820000      3.7155809E-35
   5.832000      3.4230771E-35
   5.844000      2.5524207E-35
   5.856000      1.0395793E-35
   5.868000     -1.0956106E-35
   5.880000     -3.7731532E-35
   5.892000     -6.8069193E-35
   5.904000     -9.9280474E-35
   5.916000     -1.2810017E-34
   5.928000     -1.5058909E-34
   5.940000     -1.6264102E-34
   5.952000     -1.6017838E-34
   5.964000     -1.3961661E-34
   5.976000     -9.8481356E-35
   5.988000     -3.5795203E-35
   6.000000      4.7382731E-35
   6.012000      1.4763588E-34
   6.024000      2.5900567E-34
   6.036000      3.7294140E-34
   6.048000      4.7866208E-34
   6.060000      5.6364793E-34
   6.072000      6.1439866E-34
   6.084000      6.1741826E-34
   6.096000      5.6045165E-34
   6.108000      4.3387028E-34
   6.120000      2.3220451E-34
   6.132000     -4.4272291E-35
   6.144000     -3.8807770E-34
   6.156000     -7.8333327E-34
   6.168000     -1.2051145E-33
   6.180000     -1.6195427E-33
   6.192000     -1.9848154E-33
   6.204000     -2.2532421E-33
   6.216000     -2.3743967E-33
   6.228000     -2.2992603E-33
   6.240000     -1.9852031E-33
   6.252000     -1.4016281E-33
   6.264000     -5.3574551E-34
   6.276000      6.0184920E-34
   6.288000      1.9724154E-33
   6.300000      3.5057444E-33
   6.312000      5.0989969E-33
   6.324000      6.6182022E-33
   6.336000      7.9030675E-33
   6.348000      8.7753614E-33
   6.360000      9.0509994E-33
   6.372000      8.5555675E-33
   6.384000      7.1427320E-33
   6.396000      4.7144740E-33
   6.408000      1.2418192E-33
   6.420000     -3.2157422E-33
   6.432000     -8.4942507E-33
   6.444000     -1.4314945E-32
   6.456000     -2.0281937E-32
   6.468000     -2.5889963E-32
   6.480000     -3.0543904E-32
   6.492000     -3.3590906E-32
   6.504000     -3.4365157E-32
   6.516000     -3.2244077E-32
   6.528000     -2.6713579E-32
   6.540000     -1.7438603E-32
   6.552000     -4.3340073E-33
   6.564000      1.2370177E-32
   6.576000      3.2076091E-32
   6.588000      5.3785144E-32
   6.600000      7.6091936E-32
   6.612000      9.7211249E-32
   6.624000      1.1504272E-31
   6.636000      1.2727590E-31
   6.648000      1.3153530E-31
   6.660000      1.2556212E-31
   6.672000      1.0742567E-31
   6.684000      7.5754334E-32
   6.696000      2.9971967E-32
   6.708000     -2.9477296E-32
   6.720000     -1.0093506E-31
   6.732000     -1.8138654E-31
   6.744000     -2.6639156E-31
   6.756000     -3.5010860E-31
   6.768000     -4.2542880E-31
   6.780000     -4.8423333E-31
   6.792000     -5.1778114E-31
   6.804000     -5.1722838E-31
   6.816000     -4.7427280E-31
   6.828000     -3.8190718E-31
   6.840000     -2.3525601E-31
   6.852000     -3.2459487E-32
   6.864000      2.2444346E-31
   6.876000      5.2869316E-31
   6.888000      8.6812261E-31
   6.900000      1.2246872E-30
   6.912000      1.5743055E-30
   6.924000      1.8871059E-30
   6.936000      2.1281785E-30
   6.948000      2.2589251E-30
   6.960000      2.2390822E-30
   6.972000      2.0294656E-30
   6.984000      1.5954406E-30
   6.996000      9.1106436E-31
   7.008000     -3.6237796E-32
   7.020000     -1.2406888E-30
   7.032000     -2.6732180E-30
   7.044000     -4.2770104E-30
   7.056000     -5.9641123E-30
   7.068000     -7.6137570E-30
   7.080000     -9.0731274E-30
   7.092000     -1.0161269E-29
   7.104000     -1.0676825E-29
   7.116000     -1.0410082E-29
   7.128000     -9.1595528E-30
   7.140000     -6.7529649E-30
   7.152000     -3.0719736E-30
   7.164000      1.9206229E-30
   7.176000      8.1530761E-30
   7.188000      1.5418866E-29
   7.200000      2.3356031E-29
   7.212000      3.1435284E-29
   7.224000      3.8960807E-29
   7.236000      4.5087479E-29
   7.248000      4.8857791E-29
   7.260000      4.9260554E-29
   7.272000      4.5312124E-29
   7.284000      3.6158501E-29
   7.296000      2.1194215E-29
   7.308000      1.9090801E-31
   7.320000     -2.6574427E-29
   7.332000     -5.8204528E-29
   7.344000     -9.3095529E-29
   7.356000     -1.2889577E-28
   7.368000     -1.6252645E-28
   7.380000     -1.9027931E-28
   7.392000     -2.0800260E-28
   7.404000     -2.1138078E-28
   7.416000     -1.9630542E-28
   7.428000     -1.5932476E-28
   7.440000     -9.8148249E-29
   7.452000     -1.2170228E-29
   7.464000      9.7033870E-29
   7.476000      2.2529497E-28
   7.488000      3.6558387E-28
   7.500000      5.0795449E-28
   7.512000      6.3975589E-28
   7.524000      7.4615948E-28
   7.536000      8.1102836E-28
   7.548000      8.1812888E-28
   7.560000      7.5264885E-28
   7.572000      6.0294944E-28
   7.584000      3.6243628E-28
   7.596000      3.1395953E-29
   7.608000     -3.8138895E-28
   7.620000     -8.5745666E-28
   7.632000     -1.3681292E-27
   7.644000     -1.8748275E-27
   7.656000     -2.3304020E-27
   7.668000     -2.6815882E-27
   7.680000     -2.8726023E-27
   7.692000     -2.8497920E-27
   7.704000     -2.5671294E-27
   7.716000     -1.9922029E-27
   7.728000     -1.1122515E-27
   7.740000      6.0338115E-29
   7.752000      1.4837070E-27
   7.764000      3.0840407E-27
   7.776000      4.7555617E-27
   7.788000      6.3635214E-27
   7.800000      7.7505391E-27
   7.812000      8.7463851E-27
   7.824000      9.1810013E-27
   7.836000      8.9001729E-27
   7.848000      7.7829340E-27
   7.860000      5.7593741E-27
   7.872000      2.8272661E-27
   7.884000     -9.3430193E-28
   7.896000     -5.3561803E-27
   7.908000     -1.0177061E-26
   7.920000     -1.5049542E-26
   7.932000     -1.9555327E-26
   7.944000     -2.3229888E-26
   7.956000     -2.5596042E-26
   7.968000     -2.6204945E-26
   7.980000     -2.4682022E-26
   7.992000     -2.0774393E-26
   8.004000     -1.4395639E-26
   8.016000     -5.6631531E-27
   8.028000      5.0767201E-27
   8.040000      1.7240313E-26
   8.052000      3.0018746E-26
   8.064000      4.2412943E-26
   8.076000      5.3292139E-26
   8.088000      6.1474383E-26
   8.100000      6.5825007E-26
   8.112000      6.5366839E-26
   8.124000      5.9393492E-26
   8.136000      4.7575523E-26
   8.148000      3.0048106E-26
   8.160000      7.4688927E-27
   8.172000     -1.8964156E-26
   8.184000     -4.7543004E-26
   8.196000     -7.6132282E-26
   8.208000     -1.0230457E-25
   8.220000     -1.2352302E-25
   8.232000     -1.3736031E-25
   8.244000     -1.4173802E-25
   8.256000     -1.3516534E-25
   8.268000     -1.1695349E-25
   8.280000     -8.7380329E-26
   8.292000     -4.7781650E-26
   8.304000     -5.4880621E-28
   8.316000      5.0980207E-26
   8.328000      1.0274021E-25
   8.340000      1.5026167E-25
   8.352000      1.8907710E-25
   8.364000      2.1517931E-25
   8.376000      2.2548874E-25
   8.388000      2.1827917E-25
   8.400000      1.9350790E-25
   8.412000      1.5299785E-25
   8.424000      1.0042709E-25
   8.436000      4.1096729E-26
   8.448000     -1.8532455E-26
   8.460000     -7.1517446E-26
   8.472000     -1.1127992E-25
   8.484000     -1.3254845E-25
   8.496000     -1.3229677E-25
   8.508000     -1.1055931E-25
   8.520000     -7.0996643E-26
   8.532000     -2.1086642E-26
   8.544000      2.8162337E-26
   8.556000      6.3044358E-26
   8.568000      6.8552173E-26
   8.580000      3.0288148E-26
   8.592000     -6.3230714E-26
   8.604000     -2.1807106E-25
   8.616000     -4.3244827E-25
   8.628000     -6.9467915E-25
   8.640000     -9.8186973E-25
   8.652000     -1.2596837E-24
   8.664000     -1.4834905E-24
   8.676000     -1.6011040E-24
   8.688000     -1.5571916E-24
   8.700000     -1.2992556E-24
   8.712000     -7.8489244E-25
   8.724000      1.0183585E-26
   8.736000      1.0840771E-24
   8.748000      2.4015111E-24
   8.760000      3.8885096E-24
   8.772000      5.4300306E-24
   8.784000      6.8715441E-24
   8.796000      8.0253652E-24
   8.808000      8.6822386E-24
   8.820000      8.6282206E-24
   8.832000      7.6663672E-24
   8.844000      5.6421008E-24
   8.856000      2.4705005E-24
   8.868000     -1.8368717E-24
   8.880000     -7.1484934E-24
   8.892000     -1.3195952E-23
   8.904000     -1.9566859E-23
   8.916000     -2.5710630E-23
   8.928000     -3.0959597E-23
   8.940000     -3.4566878E-23
   8.952000     -3.5761163E-23
   8.964000     -3.3816877E-23
   8.976000     -2.8136321E-23
   8.988000     -1.8338569E-23
   9.000000     -4.3478917E-24
   9.012000      1.3526923E-23
   9.024000      3.4532045E-23
   9.036000      5.7436899E-23
   9.048000      8.0540692E-23
   9.060000      1.0172512E-22
   9.072000      1.1855823E-22
   9.084000      1.2845108E-22
   9.096000      1.2886387E-22
   9.108000      1.1755311E-22
   9.120000      9.2845571E-23
   9.132000      5.3919583E-23
   9.144000      1.0691243E-24
   9.156000     -6.4077120E-23
   9.168000     -1.3841131E-22
   9.180000     -2.1730556E-22
   9.192000     -2.9469983E-22
   9.204000     -3.6333797E-22
   9.216000     -4.1516088E-22
   9.228000     -4.4185430E-22
   9.240000     -4.3553422E-22
   9.252000     -3.8953681E-22
   9.264000     -2.9926407E-22
   9.276000     -1.6302207E-22
   9.288000      1.7223833E-23
   9.300000      2.3525965E-22
   9.312000      4.8028402E-22
   9.324000      7.3689974E-22
   9.336000      9.8550129E-22
   9.348000      1.2031034E-21
   9.360000      1.3646268E-21
   9.372000      1.4446177E-21
   9.384000      1.4193420E-21
   9.396000      1.2691440E-21
   9.408000      9.8092483E-22
   9.420000      5.5055004E-22
   9.432000     -1.5030249E-23
   9.444000     -6.9617962E-22
   9.456000     -1.4597270E-21
   9.468000     -2.2590848E-21
   9.480000     -3.0355047E-21
   9.492000     -3.7205796E-21
   9.504000     -4.2400212E-21
   9.516000     -4.5186272E-21
   9.528000     -4.4862666E-21
   9.540000     -4.0845605E-21
   9.552000     -3.2738522E-21
   9.564000     -2.0399498E-21
   9.576000     -4.0004396E-22
   9.588000      1.5928167E-21
   9.600000      3.8473224E-21
   9.612000      6.2341271E-21
   9.624000      8.5891656E-21
   9.636000      1.0720327E-20
   9.648000      1.2417572E-20
   9.660000      1.3466260E-20
   9.672000      1.3663230E-20
   9.684000      1.2834827E-20
   9.696000      1.0855767E-20
   9.708000      7.6675628E-21
   9.720000      3.2949235E-21
   9.732000     -2.1414403E-21
   9.744000     -8.4172607E-21
   9.756000     -1.5203851E-20
   9.768000     -2.2075171E-20
   9.780000     -2.8523553E-20
   9.792000     -3.3984396E-20
   9.804000     -3.7869366E-20
   9.816000     -3.9607017E-20
   9.828000     -3.8688937E-20
   9.840000     -3.4718812E-20
   9.852000     -2.7461188E-20
   9.864000     -1.6886170E-20
   9.876000     -3.2060468E-21
   9.888000      1.3100226E-20
   9.900000      3.1278458E-20
   9.912000      5.0309758E-20
   9.924000      6.8942428E-20
   9.936000      8.5746195E-20
   9.948000      9.9188319E-20
   9.960000      1.0772936E-19
   9.972000      1.0993457E-19
   9.984000      1.0459520E-19
   9.996000      9.0852458E-20
   10.00800      6.8315115E-20
   10.02000      3.7161706E-20
   10.03200     -1.7827804E-21
   10.04400     -4.7005052E-20
   10.05600     -9.6304723E-20
   10.06800     -1.4684497E-19
   10.08000     -1.9525637E-19
   10.09200     -2.3779432E-19
   10.10400     -2.7054676E-19
   10.11600     -2.8968462E-19
   10.12800     -2.9174376E-19
   10.14000     -2.7392251E-19
   10.15200     -2.3437669E-19
   10.16400     -1.7249029E-19
   10.17600     -8.9100109E-20
   10.18800      1.3348509E-20
   10.20000      1.3073513E-19
   10.21200      2.5730394E-19
   10.22400      3.8582188E-19
   10.23600      5.0786046E-19
   10.24800      6.1419954E-19
   10.26000      6.9534079E-19
   10.27200      7.4211191E-19
   10.28400      7.4633208E-19
   10.29600      7.0150169E-19
   10.30800      6.0347272E-19
   10.32000      4.5105249E-19
   10.33200      2.4649080E-19
   10.34400     -4.1971811E-21
   10.35600     -2.9111520E-19
   10.36800     -6.0061197E-19
   10.38000     -9.1567136E-19
   10.39200     -1.2165754E-18
   10.40400     -1.4818299E-18
   10.41600     -1.6893267E-18
   10.42800     -1.8176938E-18
   10.44000     -1.8477720E-18
   10.45200     -1.7641351E-18
   10.46400     -1.5565630E-18
   10.47600     -1.2213654E-18
   10.48800     -7.6245554E-19
   10.50000     -1.9207457E-19
   10.51200      4.6892207E-19
   10.52400      1.1912839E-18
   10.53600      1.9381379E-18
   10.54800      2.6663292E-18
   10.56000      3.3283119E-18
   10.57200      3.8745400E-18
   10.58400      4.2562624E-18
   10.59600      4.4286009E-18
   10.60800      4.3537556E-18
   10.62000      4.0041543E-18
   10.63200      3.3653570E-18
   10.64400      2.4385036E-18
   10.65600      1.2421211E-18
   10.66800     -1.8689465E-19
   10.68000     -1.7932657E-18
   10.69200     -3.5043949E-18
   10.70400     -5.2325589E-18
   10.71600     -6.8782194E-18
   10.72800     -8.3343956E-18
   10.74000     -9.4919488E-18
   10.75200     -1.0245585E-17
   10.76400     -1.0500313E-17
   10.77600     -1.0178050E-17
   10.78800     -9.2240308E-18
   10.80000     -7.6126209E-18
   10.81200     -5.3522076E-18
   10.82400     -2.4887557E-18
   10.83600      8.9227156E-19
   10.84800      4.6659166E-18
   10.86000      8.6698545E-18
   10.87200      1.2708769E-17
   10.88400      1.6560986E-17
   10.89600      1.9987273E-17
   10.90800      2.2741605E-17
   10.92000      2.4583550E-17
   10.93200      2.5291833E-17
   10.94400      2.4678561E-17
   10.95600      2.2603427E-17
   10.96800      1.8987203E-17
   10.98000      1.3823786E-17
   10.99200      7.1899631E-18
   11.00400     -7.4783295E-19
   11.01600     -9.7305019E-18
   11.02800     -1.9407649E-17
   11.04000     -2.9343835E-17
   11.05200     -3.9030087E-17
   11.06400     -4.7900769E-17
   11.07600     -5.5355770E-17
   11.08800     -6.0787597E-17
   11.10000     -6.3612737E-17
   11.11200     -6.3306217E-17
   11.12400     -5.9438267E-17
   11.13600     -5.1711232E-17
   11.14800     -3.9995030E-17
   11.16000     -2.4358949E-17
   11.17200     -5.0976229E-18
   11.18400      1.7251250E-17
   11.19600      4.1899653E-17
   11.20800      6.7814543E-17
   11.22000      9.3737477E-17
   11.23200      1.1821974E-16
   11.24400      1.3967368E-16
   11.25600      1.5644000E-16
   11.26800      1.6686966E-16
   11.28000      1.6941857E-16
   11.29200      1.6275128E-16
   11.30400      1.4584961E-16
   11.31600      1.1812049E-16
   11.32800      7.9496828E-17
   11.34000      3.0524225E-17
   11.35200     -2.7573882E-17
   11.36400     -9.2859990E-17
   11.37600     -1.6268222E-16
   11.38800     -2.3371571E-16
   11.40000     -3.0205028E-16
   11.41200     -3.6332682E-16
   11.42400     -4.1292171E-16
   11.43600     -4.4617672E-16
   11.44800     -4.5866739E-16
   11.46000     -4.4650061E-16
   11.47200     -4.0662717E-16