 -0.1200000      0.0000000E+00
 -0.1080000      0.0000000E+00
 -9.6000001E-02  0.0000000E+00
 -8.3999999E-02  0.0000000E+00
 -7.1999997E-02  0.0000000E+00
 -5.9999999E-02  0.0000000E+00
 -4.8000000E-02  0.0000000E+00
 -3.5999998E-02  0.0000000E+00
 -2.4000000E-02  0.0000000E+00
 -1.2000000E-02  0.0000000E+00
  6.9388939E-18  0.0000000E+00
  1.2000000E-02  0.0000000E+00
  2.4000000E-02  0.0000000E+00
  3.5999998E-02  0.0000000E+00
  4.8000000E-02  0.0000000E+00
  5.9999999E-02  0.0000000E+00
  7.1999997E-02  0.0000000E+00
  8.3999999E-02  0.0000000E+00
  9.6000001E-02  0.0000000E+00
  0.1080000      0.0000000E+00
  0.1200000      0.0000000E+00
  0.1320000      0.0000000E+00
  0.1440000      0.0000000E+00
  0.1560000      0.0000000E+00
  0.1680000      0.0000000E+00
  0.1800000      0.0000000E+00
  0.1920000      0.0000000E+00
  0.2040000      0.0000000E+00
  0.2160000      0.0000000E+00
  0.2280000      0.0000000E+00
  0.2400000      0.0000000E+00
  0.2520000      0.0000000E+00
  0.2640000      0.0000000E+00
  0.2760000      0.0000000E+00
  0.2880000      0.0000000E+00
  0.3000000      0.0000000E+00
  0.3120000      0.0000000E+00
  0.3240000      0.0000000E+00
  0.3360000      0.0000000E+00
  0.3480000      0.0000000E+00
  0.3600000      0.0000000E+00
  0.3720000      0.0000000E+00
  0.3840000      0.0000000E+00
  0.3960000      0.0000000E+00
  0.4080000      0.0000000E+00
  0.4200000      0.0000000E+00
  0.4320000      0.0000000E+00
  0.4440000      0.0000000E+00
  0.4560000      0.0000000E+00
  0.4680000      0.0000000E+00
  0.4800000      0.0000000E+00
  0.4920000      0.0000000E+00
  0.5040000      0.0000000E+00
  0.5160000      0.0000000E+00
  0.5280000      0.0000000E+00
  0.5400000      0.0000000E+00
  0.5520000      0.0000000E+00
  0.5640000      0.0000000E+00
  0.5760000      0.0000000E+00
  0.5880000      0.0000000E+00
  0.6000000      0.0000000E+00
  0.6120000      0.0000000E+00
  0.6240000      0.0000000E+00
  0.6360000      0.0000000E+00
  0.6480000      0.0000000E+00
  0.6600000      0.0000000E+00
  0.6720000      0.0000000E+00
  0.6840000      0.0000000E+00
  0.6960000      0.0000000E+00
  0.7080000      0.0000000E+00
  0.7200000      0.0000000E+00
  0.7320000      0.0000000E+00
  0.7440000      0.0000000E+00
  0.7560000      0.0000000E+00
  0.7680000      0.0000000E+00
  0.7800000      0.0000000E+00
  0.7920000      0.0000000E+00
  0.8040000      0.0000000E+00
  0.8160000      0.0000000E+00
  0.8280000      0.0000000E+00
  0.8400000      0.0000000E+00
  0.8520000      0.0000000E+00
  0.8640000      0.0000000E+00
  0.8760000      0.0000000E+00
  0.8880000      0.0000000E+00
  0.9000000      0.0000000E+00
  0.9120000      0.0000000E+00
  0.9240000      0.0000000E+00
  0.9360000      0.0000000E+00
  0.9480000      0.0000000E+00
  0.9600000      0.0000000E+00
  0.9720000      0.0000000E+00
  0.9840000      0.0000000E+00
  0.9960000      0.0000000E+00
   1.008000      0.0000000E+00
   1.020000      0.0000000E+00
   1.032000      0.0000000E+00
   1.044000      0.0000000E+00
   1.056000      0.0000000E+00
   1.068000      0.0000000E+00
   1.080000      0.0000000E+00
   1.092000      0.0000000E+00
   1.104000      0.0000000E+00
   1.116000      0.0000000E+00
   1.128000      0.0000000E+00
   1.140000      0.0000000E+00
   1.152000      0.0000000E+00
   1.164000      0.0000000E+00
   1.176000      0.0000000E+00
   1.188000      0.0000000E+00
   1.200000      0.0000000E+00
   1.212000      0.0000000E+00
   1.224000      0.0000000E+00
   1.236000      0.0000000E+00
   1.248000      0.0000000E+00
   1.260000      0.0000000E+00
   1.272000      0.0000000E+00
   1.284000      0.0000000E+00
   1.296000      0.0000000E+00
   1.308000      0.0000000E+00
   1.320000      0.0000000E+00
   1.332000      0.0000000E+00
   1.344000      0.0000000E+00
   1.356000      0.0000000E+00
   1.368000      0.0000000E+00
   1.380000      0.0000000E+00
   1.392000      0.0000000E+00
   1.404000      0.0000000E+00
   1.416000      0.0000000E+00
   1.428000      0.0000000E+00
   1.440000      0.0000000E+00
   1.452000      0.0000000E+00
   1.464000      0.0000000E+00
   1.476000      0.0000000E+00
   1.488000      0.0000000E+00
   1.500000      0.0000000E+00
   1.512000      0.0000000E+00
   1.524000      0.0000000E+00
   1.536000      0.0000000E+00
   1.548000      0.0000000E+00
   1.560000      0.0000000E+00
   1.572000      0.0000000E+00
   1.584000      0.0000000E+00
   1.596000      0.0000000E+00
   1.608000      0.0000000E+00
   1.620000      0.0000000E+00
   1.632000      0.0000000E+00
   1.644000      0.0000000E+00
   1.656000      0.0000000E+00
   1.668000      0.0000000E+00
   1.680000      0.0000000E+00
   1.692000      0.0000000E+00
   1.704000      0.0000000E+00
   1.716000      0.0000000E+00
   1.728000      0.0000000E+00
   1.740000      0.0000000E+00
   1.752000      0.0000000E+00
   1.764000      0.0000000E+00
   1.776000      0.0000000E+00
   1.788000      0.0000000E+00
   1.800000      0.0000000E+00
   1.812000      0.0000000E+00
   1.824000      0.0000000E+00
   1.836000      0.0000000E+00
   1.848000      0.0000000E+00
   1.860000      0.0000000E+00
   1.872000      0.0000000E+00
   1.884000      0.0000000E+00
   1.896000      0.0000000E+00
   1.908000      0.0000000E+00
   1.920000      0.0000000E+00
   1.932000      0.0000000E+00
   1.944000      0.0000000E+00
   1.956000      0.0000000E+00
   1.968000      0.0000000E+00
   1.980000      0.0000000E+00
   1.992000      0.0000000E+00
   2.004000      0.0000000E+00
   2.016000      0.0000000E+00
   2.028000      0.0000000E+00
   2.040000      0.0000000E+00
   2.052000      0.0000000E+00
   2.064000      0.0000000E+00
   2.076000      0.0000000E+00
   2.088000      0.0000000E+00
   2.100000      0.0000000E+00
   2.112000      0.0000000E+00
   2.124000      0.0000000E+00
   2.136000      0.0000000E+00
   2.148000      0.0000000E+00
   2.160000      0.0000000E+00
   2.172000      0.0000000E+00
   2.184000      0.0000000E+00
   2.196000      5.6585587E-38
   2.208000      1.2986081E-37
   2.220000      1.5524323E-37
   2.232000      1.2533078E-37
   2.244000      4.5897012E-38
   2.256000     -1.3044240E-37
   2.268000     -4.5894578E-37
   2.280000     -5.6654277E-37
   2.292000     -4.4462752E-37
   2.304000     -2.1134419E-37
   2.316000      3.5885191E-37
   2.328000      1.0953636E-36
   2.340000      1.9235811E-36
   2.352000      2.6765204E-36
   2.364000      2.9005689E-36
   2.376000      2.2680073E-36
   2.388000      1.3839197E-36
   2.400000      4.2309891E-37
   2.412000     -5.6824280E-37
   2.424000     -1.4533530E-36
   2.436000     -2.7288168E-36
   2.448000     -4.8291294E-36
   2.460000     -7.4333308E-36
   2.472000     -1.0192794E-35
   2.484000     -1.2056834E-35
   2.496000     -1.1535663E-35
   2.508000     -7.5964916E-36
   2.520000      4.8872950E-37
   2.532000      1.2582973E-35
   2.544000      2.7504634E-35
   2.556000      4.2583988E-35
   2.568000      5.4422300E-35
   2.580000      5.9314946E-35
   2.592000      5.3582539E-35
   2.604000      3.4023504E-35
   2.616000     -1.0889822E-36
   2.628000     -5.1170411E-35
   2.640000     -1.1243273E-34
   2.652000     -1.7718935E-34
   2.664000     -2.3326707E-34
   2.676000     -2.6506975E-34
   2.688000     -2.5491013E-34
   2.700000     -1.8623131E-34
   2.712000     -4.7769843E-35
   2.724000      1.6153267E-34
   2.736000      4.2802449E-34
   2.748000      7.1999658E-34
   2.760000      9.8700649E-34
   2.772000      1.1629043E-33
   2.784000      1.1732264E-33
   2.796000      9.4720756E-34
   2.808000      4.3367692E-34
   2.820000     -3.8081926E-34
   2.832000     -1.4543897E-33
   2.844000     -2.6763565E-33
   2.856000     -3.8621800E-33
   2.868000     -4.7610952E-33
   2.880000     -5.0797199E-33
   2.892000     -4.5231098E-33
   2.904000     -2.8518437E-33
   2.916000      4.9968009E-35
   2.928000      4.1047954E-33
   2.940000      8.9826620E-33
   2.952000      1.4068247E-32
   2.964000      1.8469946E-32
   2.976000      2.1084440E-32
   2.988000      2.0724744E-32
   3.000000      1.6310528E-32
   3.012000      7.1074914E-33
   3.024000     -7.0112228E-33
   3.036000     -2.5321876E-32
   3.048000     -4.6075831E-32
   3.060000     -6.6449003E-32
   3.072000     -8.2665706E-32
   3.084000     -9.0332685E-32
   3.096000     -8.4993079E-32
   3.108000     -6.2874160E-32
   3.120000     -2.1759967E-32
   3.132000      3.8123204E-32
   3.144000      1.1335663E-31
   3.156000      1.9688298E-31
   3.168000      2.7802830E-31
   3.180000      3.4312327E-31
   3.192000      3.7678849E-31
   3.204000      3.6385291E-31
   3.216000      2.9176087E-31
   3.228000      1.5319905E-31
   3.240000     -5.1431639E-32
   3.252000     -3.1214585E-31
   3.264000     -6.0855728E-31
   3.276000     -9.1049175E-31
   3.288000     -1.1802347E-30
   3.300000     -1.3763641E-30
   3.312000     -1.4588131E-30
   3.324000     -1.3944893E-30
   3.336000     -1.1625312E-30
   3.348000     -7.5814453E-31
   3.360000     -1.9401597E-31
   3.372000      5.0141360E-31
   3.384000      1.2890232E-30
   3.396000      2.1268896E-30
   3.408000      2.9795475E-30
   3.420000      3.8263255E-30
   3.432000      4.6657662E-30
   3.444000      5.5128996E-30
   3.456000      6.3865665E-30
   3.468000      7.2853258E-30
   3.480000      8.1526510E-30
   3.492000      8.8351743E-30
   3.504000      9.0412164E-30
   3.516000      8.3103200E-30
   3.528000      6.0071809E-30
   3.540000      1.3546653E-30
   3.552000     -6.4805948E-30
   3.564000     -1.8240717E-29
   3.576000     -3.4365743E-29
   3.588000     -5.4729482E-29
   3.600000     -7.8346656E-29
   3.612000     -1.0309232E-28
   3.624000     -1.2549014E-28
   3.636000     -1.4063825E-28
   3.648000     -1.4234671E-28
   3.660000     -1.2355452E-28
   3.672000     -7.7076433E-29
   3.684000      3.3046878E-30
   3.696000      1.2143212E-28
   3.708000      2.7714917E-28
   3.720000      4.6461500E-28
   3.732000      6.7079413E-28
   3.744000      8.7441081E-28
   3.756000      1.0456991E-27
   3.768000      1.1472807E-27
   3.780000      1.1364615E-27
   3.792000      9.6913421E-28
   3.804000      6.0531511E-28
   3.816000      1.6122930E-29
   3.828000     -8.0824972E-28
   3.840000     -1.8503070E-27
   3.852000     -3.0577628E-27
   3.864000     -4.3380255E-27
   3.876000     -5.5560125E-27
   3.888000     -6.5366540E-27
   3.900000     -7.0732774E-27
   3.912000     -6.9426893E-27
   3.924000     -5.9271888E-27
   3.936000     -3.8429498E-27
   3.948000     -5.7327847E-28
   3.960000      3.8957915E-27
   3.972000      9.4411212E-27
   3.984000      1.5773728E-26
   3.996000      2.2420690E-26
   4.008000      2.8722903E-26
   4.020000      3.3853476E-26
   4.032000      3.6860580E-26
   4.044000      3.6736889E-26
   4.056000      3.2515226E-26
   4.068000      2.3387270E-26
   4.080000      8.8386233E-27
   4.092000     -1.1209922E-26
   4.104000     -3.6268410E-26
   4.116000     -6.5167337E-26
   4.128000     -9.5988829E-26
   4.140000     -1.2605756E-25
   4.152000     -1.5200827E-25
   4.164000     -1.6994291E-25
   4.176000     -1.7568475E-25
   4.188000     -1.6512899E-25
   4.200000     -1.3467925E-25
   4.212000     -8.1748645E-26
   4.224000     -5.2920268E-27
   4.236000      9.3675094E-26
   4.248000      2.1162518E-25
   4.260000      3.4219576E-25
   4.272000      4.7605902E-25
   4.284000      6.0104432E-25
   4.296000      7.0256544E-25
   4.308000      7.6438916E-25
   4.320000      7.6975657E-25
   4.332000      7.0284144E-25
   4.344000      5.5049204E-25
   4.356000      3.0416600E-25
   4.368000     -3.8074131E-26
   4.380000     -4.6967408E-25
   4.392000     -9.7401011E-25
   4.404000     -1.5233419E-24
   4.416000     -2.0785246E-24
   4.428000     -2.5896945E-24
   4.440000     -2.9981079E-24
   4.452000     -3.2392538E-24
   4.464000     -3.2472747E-24
   4.476000     -2.9606228E-24
   4.488000     -2.3287480E-24
   4.500000     -1.3194717E-24
   4.512000      7.3443388E-26
   4.524000      1.8231648E-24
   4.536000      3.8638466E-24
   4.548000      6.0867009E-24
   4.560000      8.3389398E-24
   4.572000      1.0426399E-23
   4.584000      1.2120519E-23
   4.596000      1.3170155E-23
   4.608000      1.3318347E-23
   4.620000      1.2323791E-23
   4.632000      9.9862691E-24
   4.644000      6.1747058E-24
   4.656000      8.5603458E-25
   4.668000     -5.8775233E-24
   4.680000     -1.3785611E-23
   4.692000     -2.2464438E-23
   4.704000     -3.1342267E-23
   4.716000     -3.9688738E-23
   4.728000     -4.6640618E-23
   4.740000     -5.1245663E-23
   4.752000     -5.2525152E-23
   4.764000     -4.9553999E-23
   4.776000     -4.1555577E-23
   4.788000     -2.8006348E-23
   4.800000     -8.7432278E-24
   4.812000      1.5935243E-23
   4.824000      4.5184485E-23
   4.836000      7.7557819E-23
   4.848000      1.1099052E-22
   4.860000      1.4283508E-22
   4.872000      1.6995655E-22
   4.884000      1.8889379E-22
   4.896000      1.9608761E-22
   4.908000      1.8817123E-22
   4.920000      1.6231127E-22
   4.932000      1.1658088E-22
   4.944000      5.0338442E-23
   4.956000     -3.5420372E-23
   4.968000     -1.3777553E-22
   4.980000     -2.5170090E-22
   4.992000     -3.7002842E-22
   5.004000     -4.8359445E-22
   5.016000     -5.8159637E-22
   5.028000     -6.5217486E-22
   5.040000     -6.8321933E-22
   5.052000     -6.6337467E-22
   5.064000     -5.8320191E-22
   5.076000     -4.3642340E-22
   5.088000     -2.2115732E-22
   5.100000      5.8970742E-23
   5.112000      3.9396744E-22
   5.124000      7.6699318E-22
   5.136000      1.1543906E-21
   5.148000      1.5263245E-21
   5.160000      1.8481049E-21
   5.172000      2.0822143E-21
   5.184000      2.1910049E-21
   5.196000      2.1399554E-21
   5.208000      1.9013092E-21
   5.220000      1.4578391E-21
   5.232000      8.0642471E-22
   5.244000     -3.8923915E-23
   5.256000     -1.0449768E-21
   5.268000     -2.1585036E-21
   5.280000     -3.3071232E-21
   5.292000     -4.4020165E-21
   5.304000     -5.3426077E-21
   5.316000     -6.0231471E-21
   5.328000     -6.3409477E-21
   5.340000     -6.2058095E-21
   5.352000     -5.5499921E-21
   5.364000     -4.3378927E-21
   5.376000     -2.5744910E-21
   5.388000     -3.1156911E-22
   5.400000      2.3492626E-21
   5.412000      5.2575289E-21
   5.424000      8.2194199E-21
   5.436000      1.1008070E-20
   5.448000      1.3378381E-20
   5.460000      1.5085642E-20
   5.472000      1.5906732E-20
   5.484000      1.5662214E-20
   5.496000      1.4237279E-20
   5.508000      1.1599256E-20
   5.520000      7.8094816E-21
   5.532000      3.0275014E-21
   5.544000     -2.4938447E-21
   5.556000     -8.4231406E-21
   5.568000     -1.4374582E-20
   5.580000     -1.9940153E-20
   5.592000     -2.4727127E-20
   5.604000     -2.8397110E-20
   5.616000     -3.0702033E-20
   5.628000     -3.1512040E-20
   5.640000     -3.0830340E-20
   5.652000     -2.8790897E-20
   5.664000     -2.5636272E-20
   5.676000     -2.1675139E-20
   5.688000     -1.7221719E-20
   5.700000     -1.2522503E-20
   5.712000     -7.6786934E-21
   5.724000     -2.5757764E-21
   5.736000      3.1665328E-21
   5.748000      1.0209774E-20
   5.760000      1.9464495E-20
   5.772000      3.1999837E-20
   5.784000      4.8889809E-20
   5.796000      7.0998036E-20
   5.808000      9.8711954E-20
   5.820000      1.3164740E-19
   5.832000      1.6835500E-19
   5.844000      2.0606917E-19
   5.856000      2.4054741E-19
   5.868000      2.6605109E-19
   5.880000      2.7551657E-19
   5.892000      2.6095718E-19
   5.904000      2.1412030E-19
   5.916000      1.2740143E-19
   5.928000     -5.0139920E-21
   5.940000     -1.8584410E-19
   5.952000     -4.1334117E-19
   5.964000     -6.7999659E-19
   5.976000     -9.7148899E-19
   5.988000     -1.2660652E-18
   6.000000     -1.5345489E-18
   6.012000     -1.7411594E-18
   6.024000     -1.8452824E-18
   6.036000     -1.8042739E-18
   6.048000     -1.5772916E-18
   6.060000     -1.1300339E-18
   6.072000     -4.4014260E-19
   6.084000      4.9710908E-19
   6.096000      1.6633503E-18
   6.108000      3.0124863E-18
   6.120000      4.4676012E-18
   6.132000      5.9201023E-18
   6.144000      7.2317746E-18
   6.156000      8.2402939E-18
   6.168000      8.7685297E-18
   6.180000      8.6376871E-18
   6.192000      7.6839727E-18
   6.204000      5.7780406E-18
   6.216000      2.8460148E-18
   6.228000     -1.1095142E-18
   6.240000     -5.9905727E-18
   6.252000     -1.1589231E-17
   6.264000     -1.7579823E-17
   6.276000     -2.3520279E-17
   6.288000     -2.8864600E-17
   6.300000     -3.2987940E-17
   6.312000     -3.5224811E-17
   6.324000     -3.4920002E-17
   6.336000     -3.1490299E-17
   6.348000     -2.4493882E-17
   6.360000     -1.3702713E-17
   6.372000      8.2796292E-19
   6.384000      1.8700016E-17
   6.396000      3.9130269E-17
   6.408000      6.0933393E-17
   6.420000      8.2536902E-17
   6.432000      1.0203375E-16
   6.444000      1.1727605E-16
   6.456000      1.2601013E-16
   6.468000      1.2604988E-16
   6.480000      1.1548131E-16
   6.492000      9.2886182E-17
   6.504000      5.7569852E-17
   6.516000      9.7736634E-18
   6.528000     -4.9149487E-17
   6.540000     -1.1661930E-16
   6.552000     -1.8879406E-16
   6.564000     -2.6063781E-16
   6.576000     -3.2610324E-16
   6.588000     -3.7843749E-16
   6.600000     -4.1060883E-16
   6.612000     -4.1584191E-16
   6.624000     -3.8823649E-16
   6.636000     -3.2343389E-16
   6.648000     -2.1928312E-16
   6.660000     -7.6451592E-17
   6.672000      1.0108313E-16
   6.684000      3.0572296E-16
   6.696000      5.2618142E-16
   6.708000      7.4770854E-16
   6.720000      9.5264440E-16
   6.732000      1.1213166E-15
   6.744000      1.2332690E-15
   6.756000      1.2687807E-15
   6.768000      1.2106056E-15
   6.780000      1.0458229E-15
   6.792000      7.6767295E-16
   6.804000      3.7722152E-16
   6.816000     -1.1531311E-16
   6.828000     -6.8973649E-16
   6.840000     -1.3157149E-15
   6.852000     -1.9533990E-15
   6.864000     -2.5549205E-15
   6.876000     -3.0667935E-15
   6.888000     -3.4331751E-15
   6.900000     -3.5998786E-15
   6.912000     -3.5189353E-15
   6.924000     -3.1534391E-15
   6.936000     -2.4823313E-15
   6.948000     -1.5047323E-15
   6.960000     -2.4340646E-16
   6.972000      1.2530625E-15
   6.984000      2.9097653E-15
   6.996000      4.6269420E-15
   7.008000      6.2836398E-15
   7.020000      7.7436176E-15
   7.032000      8.8633977E-15
   7.044000      9.5021613E-15
   7.056000      9.5330221E-15
   7.068000      8.8549959E-15
   7.080000      7.4048654E-15
   7.092000      5.1679788E-15
   7.104000      2.1869902E-15
   7.116000     -1.4324393E-15
   7.128000     -5.5199087E-15
   7.140000     -9.8432310E-15
   7.152000     -1.4116558E-14
   7.164000     -1.8013831E-14
   7.176000     -2.1187328E-14
   7.188000     -2.3290635E-14
   7.200000     -2.4004929E-14
   7.212000     -2.3067104E-14
   7.224000     -2.0297810E-14
   7.236000     -1.5627287E-14
   7.248000     -9.1167350E-15
   7.260000     -9.7290734E-16
   7.272000      8.4460984E-15
   7.284000      1.8635584E-14
   7.296000      2.8960622E-14
   7.308000      3.8684550E-14
   7.320000      4.7009061E-14
   7.332000      5.3124568E-14
   7.344000      5.6268514E-14
   7.356000      5.5788338E-14
   7.368000      5.1205070E-14
   7.380000      4.2272907E-14
   7.392000      2.9029788E-14
   7.404000      1.1834009E-14
   7.416000     -8.6177700E-15
   7.428000     -3.1294943E-14
   7.440000     -5.4862504E-14
   7.452000     -7.7736930E-14
   7.464000     -9.8167805E-14
   7.476000     -1.1434260E-13
   7.488000     -1.2451016E-13
   7.500000     -1.2711598E-13
   7.512000     -1.2094144E-13
   7.524000     -1.0523702E-13
   7.536000     -7.9839178E-14
   7.548000     -4.5260260E-14
   7.560000     -2.7414615E-15
   7.572000      4.5739793E-14
   7.584000      9.7514438E-14
   7.596000      1.4932174E-13
   7.608000      1.9746468E-13
   7.620000      2.3801645E-13
   7.632000      2.6707019E-13
   7.644000      2.8101910E-13
   7.656000      2.7685130E-13
   7.668000      2.5244021E-13
   7.680000      2.0680923E-13
   7.692000      1.4034906E-13
   7.704000      5.4966187E-14
   7.716000     -4.5856029E-14
   7.728000     -1.5709911E-13
   7.740000     -2.7236343E-13
   7.752000     -3.8413790E-13
   7.764000     -4.8417997E-13
   7.776000     -5.6399357E-13
   7.788000     -6.1538394E-13
   7.800000     -6.3105922E-13
   7.812000     -6.0524464E-13
   7.824000     -5.3426740E-13
   7.836000     -4.1706897E-13
   7.848000     -2.5560191E-13
   7.860000     -5.5069603E-14
   7.872000      1.7602521E-13
   7.884000      4.2604922E-13
   7.896000      6.8063838E-13
   7.908000      9.2332901E-13
   7.920000      1.1364037E-12
   7.932000      1.3019215E-12
   7.944000      1.4028837E-12
   7.956000      1.4244731E-12
   7.968000      1.3552928E-12
   7.980000      1.1885232E-12
   7.992000      9.2290888E-13
   8.004000      5.6349483E-13
   8.016000      1.2203250E-13
   8.028000     -3.8300743E-13
   8.040000     -9.2685831E-13
   8.052000     -1.4793394E-12
   8.064000     -2.0061880E-12
   8.076000     -2.4708042E-12
   8.088000     -2.8363429E-12
   8.100000     -3.0680491E-12
   8.112000     -3.1357182E-12
   8.124000     -3.0161316E-12
   8.136000     -2.6953093E-12
   8.148000     -2.1704147E-12
   8.160000     -1.4511515E-12
   8.172000     -5.6051019E-13
   8.184000      4.6525414E-13
   8.196000      1.5774904E-12
   8.208000      2.7169018E-12
   8.220000      3.8161544E-12
   8.232000      4.8032719E-12
   8.244000      5.6056791E-12
   8.256000      6.1547017E-12
   8.268000      6.3902854E-12
   8.280000      6.2656568E-12
   8.292000      5.7516184E-12
   8.304000      4.8401764E-12
   8.316000      3.5471918E-12
   8.328000      1.9137931E-12
   8.340000      6.3348091E-15
   8.352000     -2.0852454E-12
   8.364000     -4.2507274E-12
   8.376000     -6.3645244E-12
   8.388000     -8.2920597E-12
   8.400000     -9.8973572E-12
   8.412000     -1.1051465E-11
   8.424000     -1.1641277E-11
   8.436000     -1.1578222E-11
   8.448000     -1.0806242E-11
   8.460000     -9.3085062E-12
   8.472000     -7.1122639E-12
   8.484000     -4.2913854E-12
   8.496000     -9.6615869E-13
   8.508000      2.6998922E-12
   8.520000      6.5062769E-12
   8.532000      1.0224794E-11
   8.544000      1.3611476E-11
   8.556000      1.6420722E-11
   8.568000      1.8420938E-11
   8.580000      1.9410789E-11
   8.592000      1.9235126E-11
   8.604000      1.7799498E-11
   8.616000      1.5082149E-11
   8.628000      1.1142504E-11
   8.640000      6.1252353E-12
   8.652000      2.5918718E-13
   8.664000     -6.1492630E-12
   8.676000     -1.2728557E-11
   8.688000     -1.9059762E-11
   8.700000     -2.4699248E-11
   8.712000     -2.9205201E-11
   8.724000     -3.2166672E-11
   8.736000     -3.3233506E-11
   8.748000     -3.2145252E-11
   8.760000     -2.8757110E-11
   8.772000     -2.3060902E-11
   8.784000     -1.5199196E-11
   8.796000     -5.4709895E-12
   8.808000      5.6722608E-12
   8.820000      1.7640962E-11
   8.832000      2.9732130E-11
   8.844000      4.1163982E-11
   8.856000      5.1119060E-11
   8.868000      5.8793914E-11
   8.880000      6.3452646E-11
   8.892000      6.4481386E-11
   8.904000      6.1439867E-11
   8.916000      5.4106802E-11
   8.928000      4.2515238E-11
   8.940000      2.6974674E-11
   8.952000      8.0772576E-12
   8.964000     -1.3313911E-11
   8.976000     -3.6095276E-11
   8.988000     -5.8971869E-11
   9.000000     -8.0523442E-11
   9.012000     -9.9284823E-11
   9.024000     -1.1383665E-10
   9.036000     -1.2290129E-10
   9.048000     -1.2543808E-10
   9.060000     -1.2073159E-10
   9.072000     -1.0846633E-10
   9.084000     -8.8781663E-11
   9.096000     -6.2301372E-11
   9.108000     -3.0133802E-11
   9.120000      6.1602611E-12
   9.132000      4.4632787E-11
   9.144000      8.3045272E-11
   9.156000      1.1899344E-10
   9.168000      1.5005402E-10
   9.180000      1.7394572E-10
   9.192000      1.8869439E-10
   9.204000      1.9279210E-10
   9.216000      1.8533824E-10
   9.228000      1.6615140E-10
   9.240000      1.3584185E-10
   9.252000      9.5835825E-11
   9.264000      4.8345432E-11
   9.276000     -3.7188789E-12
   9.288000     -5.6892564E-11
   9.300000     -1.0735367E-10
   9.312000     -1.5116321E-10
   9.324000     -1.8453693E-10
   9.336000     -2.0413292E-10
   9.348000     -2.0733637E-10
   9.360000     -1.9252216E-10
   9.372000     -1.5927447E-10
   9.384000     -1.0854415E-10
   9.396000     -4.2726819E-11
   9.408000      3.4351806E-11
   9.420000      1.1755186E-10
   9.432000      2.0063920E-10
   9.444000      2.7660477E-10
   9.456000      3.3807268E-10
   9.468000      3.7777845E-10
   9.480000      3.8909281E-10
   9.492000      3.6656153E-10
   9.504000      3.0642625E-10
   9.516000      2.0709114E-10
   9.528000      6.9498921E-11
   9.540000     -1.0261778E-10
   9.552000     -3.0263819E-10
   9.564000     -5.2113069E-10
   9.576000     -7.4611800E-10
   9.588000     -9.6353303E-10
   9.600000     -1.1578551E-09
   9.612000     -1.3129059E-09
   9.624000     -1.4127698E-09
   9.636000     -1.4427964E-09
   9.648000     -1.3906306E-09
   9.660000     -1.2472111E-09
   9.672000     -1.0076748E-09
   9.684000     -6.7210493E-10
   9.696000     -2.4606467E-10
   9.708000      2.5913352E-10
   9.720000      8.2646112E-10
   9.732000      1.4335327E-09
   9.744000      2.0532973E-09
   9.756000      2.6550473E-09
   9.768000      3.2057179E-09
   9.780000      3.6714196E-09
   9.792000      4.0191419E-09
   9.804000      4.2185424E-09
   9.816000      4.2437294E-09
   9.828000      4.0749493E-09
   9.840000      3.7000654E-09
   9.852000      3.1157532E-09
   9.864000      2.3283238E-09
   9.876000      1.3541102E-09
   9.888000      2.1937920E-10
   9.900000     -1.0402565E-09
   9.912000     -2.3809144E-09
   9.924000     -3.7519721E-09
   9.936000     -5.0979967E-09
   9.948000     -6.3609851E-09
   9.960000     -7.4828108E-09
   9.972000     -8.4077767E-09
   9.984000     -9.0851220E-09
   9.996000     -9.4713908E-09
   10.00800     -9.5325188E-09
   10.02000     -9.2455483E-09
   10.03200     -8.5998790E-09
   10.04400     -7.5979960E-09
   10.05600     -6.2556453E-09
   10.06800     -4.6014472E-09
   10.08000     -2.6759845E-09
   10.09200     -5.3041621E-10
   10.10400      1.7753033E-09
   10.11600      4.1744981E-09
   10.12800      6.5960228E-09
   10.14000      8.9665875E-09
   10.15200      1.1213030E-08
   10.16400      1.3264431E-08
   10.17600      1.5054017E-08
   10.18800      1.6520728E-08
   10.20000      1.7610503E-08
   10.21200      1.8277182E-08
   10.22400      1.8483135E-08
   10.23600      1.8199607E-08
   10.24800      1.7406888E-08
   10.26000      1.6094374E-08
   10.27200      1.4260609E-08
   10.28400      1.1913405E-08
   10.29600      9.0701056E-09
   10.30800      5.7580403E-09
   10.32000      2.0152022E-09
   10.33200     -2.1088864E-09
   10.34400     -6.5521619E-09
   10.35600     -1.1238965E-08
   10.36800     -1.6079079E-08
   10.38000     -2.0967027E-08
   10.39200     -2.5781791E-08
   10.40400     -3.0387202E-08
   10.41600     -3.4633118E-08
   10.42800     -3.8357612E-08
   10.44000     -4.1390262E-08
   10.45200     -4.3556636E-08
   10.46400     -4.4683993E-08
   10.47600     -4.4608061E-08
   10.48800     -4.3180794E-08
   10.50000     -4.0278859E-08
   10.51200     -3.5812462E-08
   10.52400     -2.9734208E-08
   10.53600     -2.2047418E-08
   10.54800     -1.2813511E-08
   10.56000     -2.1578139E-09
   10.57200      9.7266035E-09
   10.58400      2.2577607E-08
   10.59600      3.6065540E-08
   10.60800      4.9797947E-08
   10.62000      6.3327640E-08
   10.63200      7.6164049E-08
   10.64400      8.7787861E-08
   10.65600      9.7668448E-08
   10.66800      1.0528372E-07
   10.68000      1.1014170E-07
   10.69200      1.1180293E-07
   10.70400      1.0990303E-07
   10.71600      1.0417415E-07
   10.72800      9.4464433E-08
   10.74000      8.0754454E-08
   10.75200      6.3169651E-08
   10.76400      4.1987896E-08
   10.77600      1.7641471E-08
   10.78800     -9.2869712E-09
   10.80000     -3.8074781E-08
   10.81200     -6.7876066E-08
   10.82400     -9.7744447E-08
   10.83600     -1.2666145E-07
   10.84800     -1.5356947E-07
   10.86000     -1.7740859E-07
   10.87200     -1.9715554E-07
   10.88400     -2.1186385E-07
   10.89600     -2.2070319E-07
   10.90800     -2.2299666E-07
   10.92000     -2.1825431E-07
   10.93200     -2.0620122E-07
   10.94400     -1.8679910E-07
   10.95600     -1.6026004E-07
   10.96800     -1.2705179E-07
   10.98000     -8.7893611E-08
   10.99200     -4.3743082E-08
   11.00400      4.2266119E-09
   11.01600      5.4657864E-08
   11.02800      1.0604785E-07
   11.04000      1.5679417E-07
   11.05200      2.0524580E-07
   11.06400      2.4975725E-07
   11.07600      2.8874459E-07
   11.08800      3.2074067E-07
   11.10000      3.4444821E-07
   11.11200      3.5878827E-07
   11.12400      3.6294284E-07
   11.13600      3.5638942E-07
   11.14800      3.3892655E-07
   11.16000      3.1068927E-07
   11.17200      2.7215367E-07
   11.18400      2.2413042E-07
   11.19600      1.6774713E-07
   11.20800      1.0442036E-07
   11.22000      3.5817809E-08
   11.23200     -3.6188130E-08
   11.24400     -1.0957378E-07
   11.25600     -1.8222318E-07
   11.26800     -2.5199054E-07
   11.28000     -3.1676473E-07
   11.29200     -3.7453293E-07
   11.30400     -4.2344249E-07
   11.31600     -4.6185832E-07
   11.32800     -4.8841468E-07
   11.34000     -5.0205927E-07
   11.35200     -5.0208899E-07
   11.36400     -4.8817583E-07
   11.37600     -4.6038215E-07
   11.38800     -4.1916553E-07
   11.40000     -3.6537199E-07
   11.41200     -3.0021869E-07
   11.42400     -2.2526599E-07
   11.43600     -1.4237989E-07
   11.44800     -5.3685298E-08
   11.46000      3.8488015E-08
   11.47200      1.3166613E-07