 -0.1200000      0.0000000E+00
 -0.1080000      0.0000000E+00
 -9.6000001E-02  0.0000000E+00
 -8.3999999E-02  0.0000000E+00
 -7.1999997E-02  0.0000000E+00
 -5.9999999E-02  0.0000000E+00
 -4.8000000E-02  0.0000000E+00
 -3.5999998E-02  0.0000000E+00
 -2.4000000E-02  0.0000000E+00
 -1.2000000E-02  0.0000000E+00
  6.9388939E-18  0.0000000E+00
  1.2000000E-02  0.0000000E+00
  2.4000000E-02  0.0000000E+00
  3.5999998E-02  0.0000000E+00
  4.8000000E-02  0.0000000E+00
  5.9999999E-02  0.0000000E+00
  7.1999997E-02  0.0000000E+00
  8.3999999E-02  0.0000000E+00
  9.6000001E-02  0.0000000E+00
  0.1080000      0.0000000E+00
  0.1200000      0.0000000E+00
  0.1320000      0.0000000E+00
  0.1440000      0.0000000E+00
  0.1560000      0.0000000E+00
  0.1680000      0.0000000E+00
  0.1800000      0.0000000E+00
  0.1920000      0.0000000E+00
  0.2040000      0.0000000E+00
  0.2160000      0.0000000E+00
  0.2280000      0.0000000E+00
  0.2400000      0.0000000E+00
  0.2520000      0.0000000E+00
  0.2640000      0.0000000E+00
  0.2760000      0.0000000E+00
  0.2880000      0.0000000E+00
  0.3000000      0.0000000E+00
  0.3120000      0.0000000E+00
  0.3240000      0.0000000E+00
  0.3360000      0.0000000E+00
  0.3480000      0.0000000E+00
  0.3600000      0.0000000E+00
  0.3720000      0.0000000E+00
  0.3840000      0.0000000E+00
  0.3960000      0.0000000E+00
  0.4080000      0.0000000E+00
  0.4200000      0.0000000E+00
  0.4320000      0.0000000E+00
  0.4440000      0.0000000E+00
  0.4560000      0.0000000E+00
  0.4680000      0.0000000E+00
  0.4800000      0.0000000E+00
  0.4920000      0.0000000E+00
  0.5040000      0.0000000E+00
  0.5160000      0.0000000E+00
  0.5280000      0.0000000E+00
  0.5400000      0.0000000E+00
  0.5520000      0.0000000E+00
  0.5640000      0.0000000E+00
  0.5760000      0.0000000E+00
  0.5880000      0.0000000E+00
  0.6000000      0.0000000E+00
  0.6120000      0.0000000E+00
  0.6240000      0.0000000E+00
  0.6360000      0.0000000E+00
  0.6480000      0.0000000E+00
  0.6600000      0.0000000E+00
  0.6720000      0.0000000E+00
  0.6840000      0.0000000E+00
  0.6960000      0.0000000E+00
  0.7080000      0.0000000E+00
  0.7200000      0.0000000E+00
  0.7320000      0.0000000E+00
  0.7440000      0.0000000E+00
  0.7560000      0.0000000E+00
  0.7680000      0.0000000E+00
  0.7800000      0.0000000E+00
  0.7920000      0.0000000E+00
  0.8040000      0.0000000E+00
  0.8160000      0.0000000E+00
  0.8280000      0.0000000E+00
  0.8400000      0.0000000E+00
  0.8520000      0.0000000E+00
  0.8640000      0.0000000E+00
  0.8760000      0.0000000E+00
  0.8880000      0.0000000E+00
  0.9000000      0.0000000E+00
  0.9120000      0.0000000E+00
  0.9240000      0.0000000E+00
  0.9360000      0.0000000E+00
  0.9480000      0.0000000E+00
  0.9600000      0.0000000E+00
  0.9720000      0.0000000E+00
  0.9840000      0.0000000E+00
  0.9960000      0.0000000E+00
   1.008000      0.0000000E+00
   1.020000      0.0000000E+00
   1.032000      0.0000000E+00
   1.044000      0.0000000E+00
   1.056000      0.0000000E+00
   1.068000      0.0000000E+00
   1.080000      0.0000000E+00
   1.092000      0.0000000E+00
   1.104000      0.0000000E+00
   1.116000      0.0000000E+00
   1.128000      0.0000000E+00
   1.140000      0.0000000E+00
   1.152000      0.0000000E+00
   1.164000      0.0000000E+00
   1.176000      0.0000000E+00
   1.188000      0.0000000E+00
   1.200000      0.0000000E+00
   1.212000      0.0000000E+00
   1.224000      0.0000000E+00
   1.236000      0.0000000E+00
   1.248000      0.0000000E+00
   1.260000      0.0000000E+00
   1.272000      0.0000000E+00
   1.284000      0.0000000E+00
   1.296000      0.0000000E+00
   1.308000      0.0000000E+00
   1.320000      0.0000000E+00
   1.332000      0.0000000E+00
   1.344000      0.0000000E+00
   1.356000      0.0000000E+00
   1.368000      0.0000000E+00
   1.380000      0.0000000E+00
   1.392000      0.0000000E+00
   1.404000      0.0000000E+00
   1.416000      0.0000000E+00
   1.428000      0.0000000E+00
   1.440000      0.0000000E+00
   1.452000      0.0000000E+00
   1.464000      0.0000000E+00
   1.476000      0.0000000E+00
   1.488000      0.0000000E+00
   1.500000      0.0000000E+00
   1.512000      0.0000000E+00
   1.524000      0.0000000E+00
   1.536000      0.0000000E+00
   1.548000      0.0000000E+00
   1.560000      0.0000000E+00
   1.572000      0.0000000E+00
   1.584000      0.0000000E+00
   1.596000      0.0000000E+00
   1.608000      0.0000000E+00
   1.620000      0.0000000E+00
   1.632000      0.0000000E+00
   1.644000      0.0000000E+00
   1.656000      0.0000000E+00
   1.668000      0.0000000E+00
   1.680000      0.0000000E+00
   1.692000      0.0000000E+00
   1.704000      0.0000000E+00
   1.716000      0.0000000E+00
   1.728000      0.0000000E+00
   1.740000      0.0000000E+00
   1.752000      0.0000000E+00
   1.764000      0.0000000E+00
   1.776000      0.0000000E+00
   1.788000      0.0000000E+00
   1.800000      0.0000000E+00
   1.812000      0.0000000E+00
   1.824000      0.0000000E+00
   1.836000      0.0000000E+00
   1.848000      0.0000000E+00
   1.860000      0.0000000E+00
   1.872000      0.0000000E+00
   1.884000      0.0000000E+00
   1.896000      0.0000000E+00
   1.908000      0.0000000E+00
   1.920000      0.0000000E+00
   1.932000      0.0000000E+00
   1.944000      0.0000000E+00
   1.956000      0.0000000E+00
   1.968000      0.0000000E+00
   1.980000      0.0000000E+00
   1.992000      0.0000000E+00
   2.004000      0.0000000E+00
   2.016000      0.0000000E+00
   2.028000      0.0000000E+00
   2.040000      0.0000000E+00
   2.052000      0.0000000E+00
   2.064000      0.0000000E+00
   2.076000      0.0000000E+00
   2.088000      0.0000000E+00
   2.100000      0.0000000E+00
   2.112000      0.0000000E+00
   2.124000      0.0000000E+00
   2.136000      0.0000000E+00
   2.148000      0.0000000E+00
   2.160000      0.0000000E+00
   2.172000      0.0000000E+00
   2.184000      0.0000000E+00
   2.196000      0.0000000E+00
   2.208000      0.0000000E+00
   2.220000      0.0000000E+00
   2.232000      0.0000000E+00
   2.244000      0.0000000E+00
   2.256000      0.0000000E+00
   2.268000      0.0000000E+00
   2.280000      0.0000000E+00
   2.292000      0.0000000E+00
   2.304000      0.0000000E+00
   2.316000      0.0000000E+00
   2.328000      0.0000000E+00
   2.340000      0.0000000E+00
   2.352000      0.0000000E+00
   2.364000      0.0000000E+00
   2.376000      0.0000000E+00
   2.388000      0.0000000E+00
   2.400000      0.0000000E+00
   2.412000      0.0000000E+00
   2.424000      0.0000000E+00
   2.436000      0.0000000E+00
   2.448000      0.0000000E+00
   2.460000      0.0000000E+00
   2.472000      0.0000000E+00
   2.484000      0.0000000E+00
   2.496000      0.0000000E+00
   2.508000      0.0000000E+00
   2.520000      0.0000000E+00
   2.532000      0.0000000E+00
   2.544000      0.0000000E+00
   2.556000      0.0000000E+00
   2.568000      0.0000000E+00
   2.580000      0.0000000E+00
   2.592000      0.0000000E+00
   2.604000      0.0000000E+00
   2.616000      0.0000000E+00
   2.628000      0.0000000E+00
   2.640000      0.0000000E+00
   2.652000      0.0000000E+00
   2.664000      0.0000000E+00
   2.676000      0.0000000E+00
   2.688000      0.0000000E+00
   2.700000      0.0000000E+00
   2.712000      0.0000000E+00
   2.724000      0.0000000E+00
   2.736000      0.0000000E+00
   2.748000      0.0000000E+00
   2.760000      0.0000000E+00
   2.772000      0.0000000E+00
   2.784000      0.0000000E+00
   2.796000      0.0000000E+00
   2.808000      0.0000000E+00
   2.820000      0.0000000E+00
   2.832000      0.0000000E+00
   2.844000      0.0000000E+00
   2.856000      0.0000000E+00
   2.868000      0.0000000E+00
   2.880000      0.0000000E+00
   2.892000      0.0000000E+00
   2.904000      0.0000000E+00
   2.916000      0.0000000E+00
   2.928000      0.0000000E+00
   2.940000      0.0000000E+00
   2.952000      0.0000000E+00
   2.964000      0.0000000E+00
   2.976000      0.0000000E+00
   2.988000      0.0000000E+00
   3.000000      0.0000000E+00
   3.012000      0.0000000E+00
   3.024000      0.0000000E+00
   3.036000      0.0000000E+00
   3.048000      0.0000000E+00
   3.060000      0.0000000E+00
   3.072000      0.0000000E+00
   3.084000      0.0000000E+00
   3.096000      0.0000000E+00
   3.108000      0.0000000E+00
   3.120000      0.0000000E+00
   3.132000      0.0000000E+00
   3.144000      0.0000000E+00
   3.156000      0.0000000E+00
   3.168000      0.0000000E+00
   3.180000      0.0000000E+00
   3.192000      0.0000000E+00
   3.204000      0.0000000E+00
   3.216000      0.0000000E+00
   3.228000      0.0000000E+00
   3.240000      0.0000000E+00
   3.252000      0.0000000E+00
   3.264000      0.0000000E+00
   3.276000      0.0000000E+00
   3.288000      0.0000000E+00
   3.300000      0.0000000E+00
   3.312000      0.0000000E+00
   3.324000      0.0000000E+00
   3.336000      0.0000000E+00
   3.348000      0.0000000E+00
   3.360000      0.0000000E+00
   3.372000      0.0000000E+00
   3.384000      0.0000000E+00
   3.396000      0.0000000E+00
   3.408000      0.0000000E+00
   3.420000      0.0000000E+00
   3.432000      0.0000000E+00
   3.444000      0.0000000E+00
   3.456000      0.0000000E+00
   3.468000      0.0000000E+00
   3.480000      0.0000000E+00
   3.492000      0.0000000E+00
   3.504000      0.0000000E+00
   3.516000      0.0000000E+00
   3.528000      0.0000000E+00
   3.540000      0.0000000E+00
   3.552000      0.0000000E+00
   3.564000      0.0000000E+00
   3.576000      0.0000000E+00
   3.588000      0.0000000E+00
   3.600000      0.0000000E+00
   3.612000      0.0000000E+00
   3.624000      0.0000000E+00
   3.636000      0.0000000E+00
   3.648000      0.0000000E+00
   3.660000      0.0000000E+00
   3.672000      0.0000000E+00
   3.684000      0.0000000E+00
   3.696000      0.0000000E+00
   3.708000      0.0000000E+00
   3.720000      0.0000000E+00
   3.732000      0.0000000E+00
   3.744000      0.0000000E+00
   3.756000      0.0000000E+00
   3.768000      0.0000000E+00
   3.780000      0.0000000E+00
   3.792000      0.0000000E+00
   3.804000      0.0000000E+00
   3.816000      0.0000000E+00
   3.828000      0.0000000E+00
   3.840000      0.0000000E+00
   3.852000      0.0000000E+00
   3.864000      0.0000000E+00
   3.876000      0.0000000E+00
   3.888000      0.0000000E+00
   3.900000      0.0000000E+00
   3.912000      0.0000000E+00
   3.924000      0.0000000E+00
   3.936000      0.0000000E+00
   3.948000      0.0000000E+00
   3.960000      0.0000000E+00
   3.972000      0.0000000E+00
   3.984000      0.0000000E+00
   3.996000      0.0000000E+00
   4.008000      0.0000000E+00
   4.020000      0.0000000E+00
   4.032000      0.0000000E+00
   4.044000      0.0000000E+00
   4.056000      0.0000000E+00
   4.068000      0.0000000E+00
   4.080000      0.0000000E+00
   4.092000      0.0000000E+00
   4.104000      0.0000000E+00
   4.116000      0.0000000E+00
   4.128000      0.0000000E+00
   4.140000      0.0000000E+00
   4.152000      0.0000000E+00
   4.164000      0.0000000E+00
   4.176000      0.0000000E+00
   4.188000      0.0000000E+00
   4.200000      0.0000000E+00
   4.212000      0.0000000E+00
   4.224000      0.0000000E+00
   4.236000      0.0000000E+00
   4.248000      0.0000000E+00
   4.260000      0.0000000E+00
   4.272000      0.0000000E+00
   4.284000      0.0000000E+00
   4.296000      0.0000000E+00
   4.308000      0.0000000E+00
   4.320000      0.0000000E+00
   4.332000      0.0000000E+00
   4.344000      0.0000000E+00
   4.356000      0.0000000E+00
   4.368000      0.0000000E+00
   4.380000      0.0000000E+00
   4.392000      0.0000000E+00
   4.404000      0.0000000E+00
   4.416000      0.0000000E+00
   4.428000      0.0000000E+00
   4.440000      0.0000000E+00
   4.452000      0.0000000E+00
   4.464000      0.0000000E+00
   4.476000      0.0000000E+00
   4.488000      0.0000000E+00
   4.500000      0.0000000E+00
   4.512000      0.0000000E+00
   4.524000      0.0000000E+00
   4.536000      0.0000000E+00
   4.548000      0.0000000E+00
   4.560000      0.0000000E+00
   4.572000      0.0000000E+00
   4.584000      0.0000000E+00
   4.596000      0.0000000E+00
   4.608000      0.0000000E+00
   4.620000      0.0000000E+00
   4.632000      0.0000000E+00
   4.644000      0.0000000E+00
   4.656000      0.0000000E+00
   4.668000      0.0000000E+00
   4.680000      0.0000000E+00
   4.692000      0.0000000E+00
   4.704000      0.0000000E+00
   4.716000      0.0000000E+00
   4.728000      0.0000000E+00
   4.740000      0.0000000E+00
   4.752000      0.0000000E+00
   4.764000      0.0000000E+00
   4.776000      0.0000000E+00
   4.788000      0.0000000E+00
   4.800000      0.0000000E+00
   4.812000      0.0000000E+00
   4.824000      0.0000000E+00
   4.836000      0.0000000E+00
   4.848000      0.0000000E+00
   4.860000      0.0000000E+00
   4.872000      0.0000000E+00
   4.884000      0.0000000E+00
   4.896000      0.0000000E+00
   4.908000      0.0000000E+00
   4.920000      0.0000000E+00
   4.932000      0.0000000E+00
   4.944000      0.0000000E+00
   4.956000      0.0000000E+00
   4.968000      0.0000000E+00
   4.980000      0.0000000E+00
   4.992000      0.0000000E+00
   5.004000      0.0000000E+00
   5.016000      0.0000000E+00
   5.028000      0.0000000E+00
   5.040000      0.0000000E+00
   5.052000      0.0000000E+00
   5.064000      0.0000000E+00
   5.076000      0.0000000E+00
   5.088000      0.0000000E+00
   5.100000      0.0000000E+00
   5.112000      0.0000000E+00
   5.124000      0.0000000E+00
   5.136000      0.0000000E+00
   5.148000      0.0000000E+00
   5.160000      0.0000000E+00
   5.172000      0.0000000E+00
   5.184000      0.0000000E+00
   5.196000      0.0000000E+00
   5.208000      0.0000000E+00
   5.220000      0.0000000E+00
   5.232000      0.0000000E+00
   5.244000      0.0000000E+00
   5.256000      0.0000000E+00
   5.268000      0.0000000E+00
   5.280000      0.0000000E+00
   5.292000      0.0000000E+00
   5.304000      0.0000000E+00
   5.316000      0.0000000E+00
   5.328000      0.0000000E+00
   5.340000      0.0000000E+00
   5.352000      0.0000000E+00
   5.364000      0.0000000E+00
   5.376000      0.0000000E+00
   5.388000      0.0000000E+00
   5.400000      0.0000000E+00
   5.412000      0.0000000E+00
   5.424000      0.0000000E+00
   5.436000      0.0000000E+00
   5.448000      0.0000000E+00
   5.460000      0.0000000E+00
   5.472000      0.0000000E+00
   5.484000      0.0000000E+00
   5.496000      0.0000000E+00
   5.508000      0.0000000E+00
   5.520000      0.0000000E+00
   5.532000      0.0000000E+00
   5.544000      0.0000000E+00
   5.556000      0.0000000E+00
   5.568000      0.0000000E+00
   5.580000      0.0000000E+00
   5.592000      0.0000000E+00
   5.604000      0.0000000E+00
   5.616000      0.0000000E+00
   5.628000      0.0000000E+00
   5.640000      0.0000000E+00
   5.652000      0.0000000E+00
   5.664000      0.0000000E+00
   5.676000      0.0000000E+00
   5.688000      0.0000000E+00
   5.700000      0.0000000E+00
   5.712000      0.0000000E+00
   5.724000      0.0000000E+00
   5.736000      0.0000000E+00
   5.748000      0.0000000E+00
   5.760000      0.0000000E+00
   5.772000      0.0000000E+00
   5.784000      0.0000000E+00
   5.796000      0.0000000E+00
   5.808000      0.0000000E+00
   5.820000      0.0000000E+00
   5.832000      0.0000000E+00
   5.844000      0.0000000E+00
   5.856000      0.0000000E+00
   5.868000      0.0000000E+00
   5.880000      0.0000000E+00
   5.892000      0.0000000E+00
   5.904000      0.0000000E+00
   5.916000      0.0000000E+00
   5.928000      0.0000000E+00
   5.940000      0.0000000E+00
   5.952000      0.0000000E+00
   5.964000      0.0000000E+00
   5.976000      0.0000000E+00
   5.988000      0.0000000E+00
   6.000000      0.0000000E+00
   6.012000      0.0000000E+00
   6.024000      0.0000000E+00
   6.036000      0.0000000E+00
   6.048000      0.0000000E+00
   6.060000      0.0000000E+00
   6.072000      0.0000000E+00
   6.084000      0.0000000E+00
   6.096000      0.0000000E+00
   6.108000      0.0000000E+00
   6.120000      0.0000000E+00
   6.132000      0.0000000E+00
   6.144000      0.0000000E+00
   6.156000      0.0000000E+00
   6.168000      0.0000000E+00
   6.180000      0.0000000E+00
   6.192000      0.0000000E+00
   6.204000      0.0000000E+00
   6.216000      0.0000000E+00
   6.228000      0.0000000E+00
   6.240000      0.0000000E+00
   6.252000      0.0000000E+00
   6.264000      0.0000000E+00
   6.276000      0.0000000E+00
   6.288000      0.0000000E+00
   6.300000      0.0000000E+00
   6.312000      0.0000000E+00
   6.324000      0.0000000E+00
   6.336000      0.0000000E+00
   6.348000      0.0000000E+00
   6.360000      0.0000000E+00
   6.372000      0.0000000E+00
   6.384000      0.0000000E+00
   6.396000      0.0000000E+00
   6.408000      0.0000000E+00
   6.420000      0.0000000E+00
   6.432000      0.0000000E+00
   6.444000      0.0000000E+00
   6.456000      0.0000000E+00
   6.468000      0.0000000E+00
   6.480000      0.0000000E+00
   6.492000      0.0000000E+00
   6.504000      0.0000000E+00
   6.516000      0.0000000E+00
   6.528000      0.0000000E+00
   6.540000      0.0000000E+00
   6.552000      0.0000000E+00
   6.564000      0.0000000E+00
   6.576000      0.0000000E+00
   6.588000      0.0000000E+00
   6.600000      0.0000000E+00
   6.612000      0.0000000E+00
   6.624000      0.0000000E+00
   6.636000      0.0000000E+00
   6.648000      0.0000000E+00
   6.660000      0.0000000E+00
   6.672000      0.0000000E+00
   6.684000      0.0000000E+00
   6.696000      0.0000000E+00
   6.708000      0.0000000E+00
   6.720000      0.0000000E+00
   6.732000      0.0000000E+00
   6.744000      0.0000000E+00
   6.756000      0.0000000E+00
   6.768000      0.0000000E+00
   6.780000      0.0000000E+00
   6.792000      0.0000000E+00
   6.804000      0.0000000E+00
   6.816000      0.0000000E+00
   6.828000      0.0000000E+00
   6.840000      0.0000000E+00
   6.852000      0.0000000E+00
   6.864000      0.0000000E+00
   6.876000      0.0000000E+00
   6.888000      0.0000000E+00
   6.900000      0.0000000E+00
   6.912000      0.0000000E+00
   6.924000      0.0000000E+00
   6.936000      0.0000000E+00
   6.948000      0.0000000E+00
   6.960000      0.0000000E+00
   6.972000      0.0000000E+00
   6.984000      0.0000000E+00
   6.996000      0.0000000E+00
   7.008000      0.0000000E+00
   7.020000      0.0000000E+00
   7.032000      0.0000000E+00
   7.044000      0.0000000E+00
   7.056000      0.0000000E+00
   7.068000      0.0000000E+00
   7.080000      0.0000000E+00
   7.092000      0.0000000E+00
   7.104000      0.0000000E+00
   7.116000      0.0000000E+00
   7.128000      0.0000000E+00
   7.140000      0.0000000E+00
   7.152000      0.0000000E+00
   7.164000      0.0000000E+00
   7.176000      0.0000000E+00
   7.188000      0.0000000E+00
   7.200000      0.0000000E+00
   7.212000      0.0000000E+00
   7.224000      0.0000000E+00
   7.236000      0.0000000E+00
   7.248000      0.0000000E+00
   7.260000      0.0000000E+00
   7.272000      0.0000000E+00
   7.284000      0.0000000E+00
   7.296000      0.0000000E+00
   7.308000      0.0000000E+00
   7.320000      0.0000000E+00
   7.332000      0.0000000E+00
   7.344000      0.0000000E+00
   7.356000      0.0000000E+00
   7.368000      0.0000000E+00
   7.380000      0.0000000E+00
   7.392000      0.0000000E+00
   7.404000      0.0000000E+00
   7.416000      0.0000000E+00
   7.428000      0.0000000E+00
   7.440000      0.0000000E+00
   7.452000      0.0000000E+00
   7.464000      0.0000000E+00
   7.476000      0.0000000E+00
   7.488000      0.0000000E+00
   7.500000      0.0000000E+00
   7.512000      0.0000000E+00
   7.524000      0.0000000E+00
   7.536000      0.0000000E+00
   7.548000      0.0000000E+00
   7.560000      0.0000000E+00
   7.572000      0.0000000E+00
   7.584000      0.0000000E+00
   7.596000      0.0000000E+00
   7.608000      0.0000000E+00
   7.620000      0.0000000E+00
   7.632000      0.0000000E+00
   7.644000      0.0000000E+00
   7.656000      0.0000000E+00
   7.668000      0.0000000E+00
   7.680000      0.0000000E+00
   7.692000      0.0000000E+00
   7.704000      0.0000000E+00
   7.716000      0.0000000E+00
   7.728000      0.0000000E+00
   7.740000      0.0000000E+00
   7.752000      0.0000000E+00
   7.764000      0.0000000E+00
   7.776000      0.0000000E+00
   7.788000      0.0000000E+00
   7.800000      0.0000000E+00
   7.812000      0.0000000E+00
   7.824000      0.0000000E+00
   7.836000      0.0000000E+00
   7.848000      0.0000000E+00
   7.860000      0.0000000E+00
   7.872000      0.0000000E+00
   7.884000      0.0000000E+00
   7.896000      0.0000000E+00
   7.908000      0.0000000E+00
   7.920000      0.0000000E+00
   7.932000      0.0000000E+00
   7.944000      0.0000000E+00
   7.956000      0.0000000E+00
   7.968000      0.0000000E+00
   7.980000      0.0000000E+00
   7.992000      0.0000000E+00
   8.004000      0.0000000E+00
   8.016000      0.0000000E+00
   8.028000      0.0000000E+00
   8.040000      0.0000000E+00
   8.052000      0.0000000E+00
   8.064000      0.0000000E+00
   8.076000      0.0000000E+00
   8.088000      0.0000000E+00
   8.100000      0.0000000E+00
   8.112000      0.0000000E+00
   8.124000      0.0000000E+00
   8.136000      0.0000000E+00
   8.148000      0.0000000E+00
   8.160000      0.0000000E+00
   8.172000      0.0000000E+00
   8.184000      0.0000000E+00
   8.196000      0.0000000E+00
   8.208000      0.0000000E+00
   8.220000      0.0000000E+00
   8.232000      0.0000000E+00
   8.244000      0.0000000E+00
   8.256000      0.0000000E+00
   8.268000      0.0000000E+00
   8.280000      0.0000000E+00
   8.292000      0.0000000E+00
   8.304000      0.0000000E+00
   8.316000      0.0000000E+00
   8.328000      0.0000000E+00
   8.340000      0.0000000E+00
   8.352000      0.0000000E+00
   8.364000      0.0000000E+00
   8.376000      0.0000000E+00
   8.388000      0.0000000E+00
   8.400000      0.0000000E+00
   8.412000      0.0000000E+00
   8.424000      0.0000000E+00
   8.436000      0.0000000E+00
   8.448000      0.0000000E+00
   8.460000      0.0000000E+00
   8.472000      0.0000000E+00
   8.484000      0.0000000E+00
   8.496000      0.0000000E+00
   8.508000      0.0000000E+00
   8.520000      0.0000000E+00
   8.532000      0.0000000E+00
   8.544000      0.0000000E+00
   8.556000      0.0000000E+00
   8.568000      0.0000000E+00
   8.580000      0.0000000E+00
   8.592000      0.0000000E+00
   8.604000      0.0000000E+00
   8.616000      0.0000000E+00
   8.628000      0.0000000E+00
   8.640000      0.0000000E+00
   8.652000      0.0000000E+00
   8.664000      0.0000000E+00
   8.676000      0.0000000E+00
   8.688000      0.0000000E+00
   8.700000      0.0000000E+00
   8.712000      0.0000000E+00
   8.724000      0.0000000E+00
   8.736000      0.0000000E+00
   8.748000      1.4045186E-38
   8.760000      2.4159896E-38
   8.772000      3.5906264E-38
   8.784000      4.4639826E-38
   8.796000      4.8870093E-38
   8.808000      4.5807169E-38
   8.820000      3.0539941E-38
   8.832000      0.0000000E+00
   8.844000     -7.9765574E-38
   8.856000     -1.7189532E-37
   8.868000     -2.7443141E-37
   8.880000     -3.6758875E-37
   8.892000     -4.4054084E-37
   8.904000     -4.5780246E-37
   8.916000     -4.0021111E-37
   8.928000     -2.7010333E-37
   8.940000     -8.7018090E-38
   8.952000      1.4756009E-37
   8.964000      3.9602928E-37
   8.976000      6.2926727E-37
   8.988000      7.9666504E-37
   9.000000      8.7085888E-37
   9.012000      8.2656296E-37
   9.024000      6.5208991E-37
   9.036000      3.5278135E-37
   9.048000     -6.6109865E-38
   9.060000     -5.7828839E-37
   9.072000     -1.1237432E-36
   9.084000     -1.6491054E-36
   9.096000     -2.0991395E-36
   9.108000     -2.4138777E-36
   9.120000     -2.5547128E-36
   9.132000     -2.4813497E-36
   9.144000     -2.1317772E-36
   9.156000     -1.4890442E-36
   9.168000     -5.3837587E-37
   9.180000      7.2045198E-37
   9.192000      2.2571863E-36
   9.204000      4.0336367E-36
   9.216000      5.9335359E-36
   9.228000      7.8151979E-36
   9.240000      9.5212883E-36
   9.252000      1.0909091E-35
   9.264000      1.1758421E-35
   9.276000      1.1853084E-35
   9.288000      1.1010114E-35
   9.300000      9.0667191E-36
   9.312000      5.8987514E-36
   9.324000      1.4839596E-36
   9.336000     -4.1509461E-36
   9.348000     -1.0795533E-35
   9.360000     -1.8156132E-35
   9.372000     -2.5827120E-35
   9.384000     -3.3324278E-35
   9.396000     -3.9968030E-35
   9.408000     -4.4979356E-35
   9.420000     -4.7549243E-35
   9.432000     -4.6886977E-35
   9.444000     -4.2333090E-35
   9.456000     -3.3355232E-35
   9.468000     -1.9651895E-35
   9.480000     -1.2668509E-36
   9.492000      2.1356234E-35
   9.504000      4.7328390E-35
   9.516000      7.5276667E-35
   9.528000      1.0340444E-34
   9.540000      1.2951498E-34
   9.552000      1.5110405E-34
   9.564000      1.6552693E-34
   9.576000      1.7014249E-34
   9.588000      1.6256275E-34
   9.600000      1.4089211E-34
   9.612000      1.0395246E-34
   9.624000      5.1497093E-35
   9.636000     -1.5562894E-35
   9.648000     -9.5029902E-35
   9.660000     -1.8334914E-34
   9.672000     -2.7562039E-34
   9.684000     -3.6571018E-34
   9.696000     -4.4648967E-34
   9.708000     -5.1018172E-34
   9.720000     -5.4882660E-34
   9.732000     -5.5479462E-34
   9.744000     -5.2145035E-34
   9.756000     -4.4378590E-34
   9.768000     -3.1909752E-34
   9.780000     -1.4759714E-34
   9.792000      6.7080136E-35
   9.804000      3.1752444E-34
   9.816000      5.9239134E-34
   9.828000      8.7653179E-34
   9.840000      1.1513943E-33
   9.852000      1.3957528E-33
   9.864000      1.5867398E-33
   9.876000      1.7012006E-33
   9.888000      1.7172836E-33
   9.900000      1.6162122E-33
   9.912000      1.3841494E-33
   9.924000      1.0140171E-33
   9.936000      5.0714091E-34
   9.948000     -1.2539460E-34
   9.960000     -8.6189735E-34
   9.972000     -1.6697897E-33
   9.984000     -2.5060526E-33
   9.996000     -3.3184584E-33
   10.00800     -4.0476414E-33
   10.02000     -4.6299806E-33
   10.03200     -5.0012351E-33
   10.04400     -5.1007819E-33
   10.05600     -4.8762713E-33
   10.06800     -4.2884370E-33
   10.08000     -3.3157955E-33
   10.09200     -1.9588298E-33
   10.10400     -2.4339327E-34
   10.11600      1.7770552E-33
   10.12800      4.0206778E-33
   10.14000      6.3782074E-33
   10.15200      8.7158006E-33
   10.16400      1.0879867E-32
   10.17600      1.2703857E-32
   10.18800      1.4016822E-32
   10.20000      1.4653479E-32
   10.21200      1.4465345E-32
   10.22400      1.3332408E-32
   10.23600      1.1174689E-32
   10.24800      7.9630103E-33
   10.26000      3.7282063E-33
   10.27200     -1.4319391E-33
   10.28400     -7.3487396E-33
   10.29600     -1.3782226E-32
   10.30800     -2.0424821E-32
   10.32000     -2.6909373E-32
   10.33200     -3.2821651E-32
   10.34400     -3.7717206E-32
   10.35600     -4.1142232E-32
   10.36800     -4.2657841E-32
   10.38000     -4.1866974E-32
   10.39200     -3.8442835E-32
   10.40400     -3.2157696E-32
   10.41600     -2.2910635E-32
   10.42800     -1.0752707E-32
   10.44000      4.0920509E-33
   10.45200      2.1211396E-32
   10.46400      3.9997042E-32
   10.47600      5.9645747E-32
   10.48800      7.9170661E-32
   10.50000      9.7424073E-32
   10.51200      1.1313248E-31
   10.52400      1.2494426E-31
   10.53600      1.3149010E-31
   10.54800      1.3145522E-31
   10.56000      1.2366225E-31
   10.57200      1.0716245E-31
   10.58400      8.1331790E-32
   10.59600      4.5968315E-32
   10.60800      1.3849424E-33
   10.62000     -5.1508047E-32
   10.63200     -1.1113812E-31
   10.64400     -1.7523083E-31
   10.65600     -2.4080333E-31
   10.66800     -3.0419932E-31
   10.68000     -3.6117196E-31
   10.69200     -4.0702122E-31
   10.70400     -4.3678883E-31
   10.71600     -4.4551179E-31
   10.72800     -4.2853093E-31
   10.74000     -3.8184711E-31
   10.75200     -3.0251239E-31
   10.76400     -1.8903749E-31
   10.77600     -4.1792257E-32
   10.78800      1.3662975E-31
   10.80000      3.4111539E-31
   10.81200      5.6384011E-31
   10.82400      7.9421721E-31
   10.83600      1.0190212E-30
   10.84800      1.2227161E-30
   10.86000      1.3880103E-30
   10.87200      1.4966466E-30
   10.88400      1.5304255E-30
   10.89600      1.4724350E-30
   10.90800      1.3084516E-30
   10.92000      1.0284411E-30
   10.93200      6.2808201E-31
   10.94400      1.1020386E-31
   10.95600     -5.1397541E-31
   10.96800     -1.2239430E-30
   10.98000     -1.9894465E-30
   10.99200     -2.7706349E-30
   11.00400     -3.5188933E-30
   11.01600     -4.1784487E-30
   11.02800     -4.6887874E-30
   11.04000     -4.9878708E-30
   11.05200     -5.0160789E-30
   11.06400     -4.7207447E-30
   11.07600     -4.0610667E-30
   11.08800     -3.0131381E-30
   11.10000     -1.5747440E-30
   11.11200      2.3043956E-31
   11.12400      2.3496629E-30
   11.13600      4.6993432E-30
   11.14800      7.1651169E-30
   11.16000      9.6040311E-30
   11.17200      1.1849110E-29
   11.18400      1.3716408E-29
   11.19600      1.5014497E-29
   11.20800      1.5556166E-29
   11.22000      1.5171915E-29
   11.23200      1.3724589E-29
   11.24400      1.1124374E-29
   11.25600      7.3431458E-30
   11.26800      2.4270594E-30
   11.28000     -3.4937678E-30
   11.29200     -1.0199682E-29
   11.30400     -1.7381090E-29
   11.31600     -2.4644144E-29
   11.32800     -3.1523116E-29
   11.34000     -3.7499773E-29
   11.35200     -4.2029527E-29
   11.36400     -4.4573696E-29
   11.37600     -4.4636689E-29
   11.38800     -4.1806321E-29
   11.40000     -3.5795039E-29
   11.41200     -2.6479346E-29
   11.42400     -1.3934488E-29
   11.43600      1.5387470E-30
   11.44800      1.9398195E-29
   11.46000      3.8858204E-29
   11.47200      5.8903598E-29