 -0.1200000      0.0000000E+00
 -0.1080000      0.0000000E+00
 -9.6000001E-02  0.0000000E+00
 -8.3999999E-02  0.0000000E+00
 -7.1999997E-02  0.0000000E+00
 -5.9999999E-02  0.0000000E+00
 -4.8000000E-02  0.0000000E+00
 -3.5999998E-02  0.0000000E+00
 -2.4000000E-02  0.0000000E+00
 -1.2000000E-02  0.0000000E+00
  6.9388939E-18  0.0000000E+00
  1.2000000E-02  0.0000000E+00
  2.4000000E-02  0.0000000E+00
  3.5999998E-02  0.0000000E+00
  4.8000000E-02  0.0000000E+00
  5.9999999E-02  0.0000000E+00
  7.1999997E-02  0.0000000E+00
  8.3999999E-02  0.0000000E+00
  9.6000001E-02  0.0000000E+00
  0.1080000      0.0000000E+00
  0.1200000      0.0000000E+00
  0.1320000      0.0000000E+00
  0.1440000      0.0000000E+00
  0.1560000      0.0000000E+00
  0.1680000      0.0000000E+00
  0.1800000      0.0000000E+00
  0.1920000      0.0000000E+00
  0.2040000      0.0000000E+00
  0.2160000      0.0000000E+00
  0.2280000      0.0000000E+00
  0.2400000      0.0000000E+00
  0.2520000      0.0000000E+00
  0.2640000      0.0000000E+00
  0.2760000      0.0000000E+00
  0.2880000      0.0000000E+00
  0.3000000      0.0000000E+00
  0.3120000      0.0000000E+00
  0.3240000      0.0000000E+00
  0.3360000      0.0000000E+00
  0.3480000      0.0000000E+00
  0.3600000      0.0000000E+00
  0.3720000      0.0000000E+00
  0.3840000      0.0000000E+00
  0.3960000      0.0000000E+00
  0.4080000      0.0000000E+00
  0.4200000      0.0000000E+00
  0.4320000      0.0000000E+00
  0.4440000      0.0000000E+00
  0.4560000      0.0000000E+00
  0.4680000      0.0000000E+00
  0.4800000      0.0000000E+00
  0.4920000      0.0000000E+00
  0.5040000      0.0000000E+00
  0.5160000      0.0000000E+00
  0.5280000      0.0000000E+00
  0.5400000      0.0000000E+00
  0.5520000      0.0000000E+00
  0.5640000      0.0000000E+00
  0.5760000      0.0000000E+00
  0.5880000      0.0000000E+00
  0.6000000      0.0000000E+00
  0.6120000      0.0000000E+00
  0.6240000      0.0000000E+00
  0.6360000      0.0000000E+00
  0.6480000      0.0000000E+00
  0.6600000      0.0000000E+00
  0.6720000      0.0000000E+00
  0.6840000      0.0000000E+00
  0.6960000      0.0000000E+00
  0.7080000      0.0000000E+00
  0.7200000      0.0000000E+00
  0.7320000      0.0000000E+00
  0.7440000      0.0000000E+00
  0.7560000      0.0000000E+00
  0.7680000      0.0000000E+00
  0.7800000      0.0000000E+00
  0.7920000      0.0000000E+00
  0.8040000      0.0000000E+00
  0.8160000      0.0000000E+00
  0.8280000      0.0000000E+00
  0.8400000      0.0000000E+00
  0.8520000      0.0000000E+00
  0.8640000      0.0000000E+00
  0.8760000      0.0000000E+00
  0.8880000      0.0000000E+00
  0.9000000      0.0000000E+00
  0.9120000      0.0000000E+00
  0.9240000      0.0000000E+00
  0.9360000      0.0000000E+00
  0.9480000      0.0000000E+00
  0.9600000      0.0000000E+00
  0.9720000      0.0000000E+00
  0.9840000      0.0000000E+00
  0.9960000      0.0000000E+00
   1.008000      0.0000000E+00
   1.020000      0.0000000E+00
   1.032000      0.0000000E+00
   1.044000      0.0000000E+00
   1.056000      0.0000000E+00
   1.068000      0.0000000E+00
   1.080000      0.0000000E+00
   1.092000      0.0000000E+00
   1.104000      0.0000000E+00
   1.116000      0.0000000E+00
   1.128000      0.0000000E+00
   1.140000      0.0000000E+00
   1.152000      0.0000000E+00
   1.164000      0.0000000E+00
   1.176000      0.0000000E+00
   1.188000      0.0000000E+00
   1.200000      0.0000000E+00
   1.212000      0.0000000E+00
   1.224000      0.0000000E+00
   1.236000      0.0000000E+00
   1.248000      0.0000000E+00
   1.260000      0.0000000E+00
   1.272000      0.0000000E+00
   1.284000      0.0000000E+00
   1.296000      0.0000000E+00
   1.308000      0.0000000E+00
   1.320000      0.0000000E+00
   1.332000      0.0000000E+00
   1.344000      0.0000000E+00
   1.356000      0.0000000E+00
   1.368000      0.0000000E+00
   1.380000      0.0000000E+00
   1.392000      0.0000000E+00
   1.404000      0.0000000E+00
   1.416000      0.0000000E+00
   1.428000      0.0000000E+00
   1.440000      0.0000000E+00
   1.452000      0.0000000E+00
   1.464000      0.0000000E+00
   1.476000      0.0000000E+00
   1.488000      0.0000000E+00
   1.500000      0.0000000E+00
   1.512000      0.0000000E+00
   1.524000      0.0000000E+00
   1.536000      0.0000000E+00
   1.548000      0.0000000E+00
   1.560000      0.0000000E+00
   1.572000      0.0000000E+00
   1.584000      0.0000000E+00
   1.596000      0.0000000E+00
   1.608000      0.0000000E+00
   1.620000      0.0000000E+00
   1.632000      0.0000000E+00
   1.644000      0.0000000E+00
   1.656000      0.0000000E+00
   1.668000      0.0000000E+00
   1.680000      0.0000000E+00
   1.692000      0.0000000E+00
   1.704000      0.0000000E+00
   1.716000      0.0000000E+00
   1.728000      0.0000000E+00
   1.740000      0.0000000E+00
   1.752000      0.0000000E+00
   1.764000      0.0000000E+00
   1.776000      0.0000000E+00
   1.788000      0.0000000E+00
   1.800000      0.0000000E+00
   1.812000      0.0000000E+00
   1.824000      0.0000000E+00
   1.836000      0.0000000E+00
   1.848000      0.0000000E+00
   1.860000      0.0000000E+00
   1.872000      0.0000000E+00
   1.884000      0.0000000E+00
   1.896000      0.0000000E+00
   1.908000      0.0000000E+00
   1.920000      0.0000000E+00
   1.932000      0.0000000E+00
   1.944000      0.0000000E+00
   1.956000      0.0000000E+00
   1.968000      0.0000000E+00
   1.980000      0.0000000E+00
   1.992000      0.0000000E+00
   2.004000      0.0000000E+00
   2.016000      0.0000000E+00
   2.028000      0.0000000E+00
   2.040000      0.0000000E+00
   2.052000      0.0000000E+00
   2.064000      0.0000000E+00
   2.076000      0.0000000E+00
   2.088000      0.0000000E+00
   2.100000      0.0000000E+00
   2.112000      0.0000000E+00
   2.124000      0.0000000E+00
   2.136000      0.0000000E+00
   2.148000      0.0000000E+00
   2.160000      0.0000000E+00
   2.172000      0.0000000E+00
   2.184000      0.0000000E+00
   2.196000      0.0000000E+00
   2.208000      0.0000000E+00
   2.220000      0.0000000E+00
   2.232000      0.0000000E+00
   2.244000      0.0000000E+00
   2.256000      0.0000000E+00
   2.268000      0.0000000E+00
   2.280000      0.0000000E+00
   2.292000      0.0000000E+00
   2.304000      0.0000000E+00
   2.316000      0.0000000E+00
   2.328000      0.0000000E+00
   2.340000      0.0000000E+00
   2.352000      0.0000000E+00
   2.364000      0.0000000E+00
   2.376000      0.0000000E+00
   2.388000      0.0000000E+00
   2.400000      0.0000000E+00
   2.412000      0.0000000E+00
   2.424000      0.0000000E+00
   2.436000      0.0000000E+00
   2.448000      0.0000000E+00
   2.460000      0.0000000E+00
   2.472000      0.0000000E+00
   2.484000      0.0000000E+00
   2.496000      0.0000000E+00
   2.508000      0.0000000E+00
   2.520000      0.0000000E+00
   2.532000      0.0000000E+00
   2.544000      0.0000000E+00
   2.556000      0.0000000E+00
   2.568000      0.0000000E+00
   2.580000      0.0000000E+00
   2.592000      0.0000000E+00
   2.604000      0.0000000E+00
   2.616000      0.0000000E+00
   2.628000      0.0000000E+00
   2.640000      0.0000000E+00
   2.652000      0.0000000E+00
   2.664000      0.0000000E+00
   2.676000      0.0000000E+00
   2.688000      0.0000000E+00
   2.700000      0.0000000E+00
   2.712000      0.0000000E+00
   2.724000      0.0000000E+00
   2.736000      0.0000000E+00
   2.748000      0.0000000E+00
   2.760000      0.0000000E+00
   2.772000      0.0000000E+00
   2.784000      0.0000000E+00
   2.796000      0.0000000E+00
   2.808000      0.0000000E+00
   2.820000      0.0000000E+00
   2.832000      0.0000000E+00
   2.844000      0.0000000E+00
   2.856000      0.0000000E+00
   2.868000      0.0000000E+00
   2.880000      0.0000000E+00
   2.892000      0.0000000E+00
   2.904000      0.0000000E+00
   2.916000      0.0000000E+00
   2.928000      0.0000000E+00
   2.940000      0.0000000E+00
   2.952000      0.0000000E+00
   2.964000      0.0000000E+00
   2.976000      0.0000000E+00
   2.988000      0.0000000E+00
   3.000000      0.0000000E+00
   3.012000      0.0000000E+00
   3.024000      0.0000000E+00
   3.036000      0.0000000E+00
   3.048000      0.0000000E+00
   3.060000      0.0000000E+00
   3.072000      0.0000000E+00
   3.084000      0.0000000E+00
   3.096000      0.0000000E+00
   3.108000      0.0000000E+00
   3.120000      0.0000000E+00
   3.132000      0.0000000E+00
   3.144000      0.0000000E+00
   3.156000      0.0000000E+00
   3.168000      0.0000000E+00
   3.180000      0.0000000E+00
   3.192000      0.0000000E+00
   3.204000      0.0000000E+00
   3.216000      0.0000000E+00
   3.228000      0.0000000E+00
   3.240000      0.0000000E+00
   3.252000      0.0000000E+00
   3.264000      0.0000000E+00
   3.276000      0.0000000E+00
   3.288000      0.0000000E+00
   3.300000      0.0000000E+00
   3.312000      0.0000000E+00
   3.324000      0.0000000E+00
   3.336000      0.0000000E+00
   3.348000      0.0000000E+00
   3.360000      0.0000000E+00
   3.372000      0.0000000E+00
   3.384000      0.0000000E+00
   3.396000      0.0000000E+00
   3.408000      0.0000000E+00
   3.420000      0.0000000E+00
   3.432000      0.0000000E+00
   3.444000      0.0000000E+00
   3.456000      0.0000000E+00
   3.468000      0.0000000E+00
   3.480000      0.0000000E+00
   3.492000      0.0000000E+00
   3.504000      0.0000000E+00
   3.516000      0.0000000E+00
   3.528000      0.0000000E+00
   3.540000      0.0000000E+00
   3.552000      0.0000000E+00
   3.564000      0.0000000E+00
   3.576000      0.0000000E+00
   3.588000      0.0000000E+00
   3.600000      0.0000000E+00
   3.612000      0.0000000E+00
   3.624000      0.0000000E+00
   3.636000      0.0000000E+00
   3.648000      0.0000000E+00
   3.660000      0.0000000E+00
   3.672000      0.0000000E+00
   3.684000      0.0000000E+00
   3.696000      0.0000000E+00
   3.708000      0.0000000E+00
   3.720000      0.0000000E+00
   3.732000      0.0000000E+00
   3.744000      0.0000000E+00
   3.756000      0.0000000E+00
   3.768000      0.0000000E+00
   3.780000      0.0000000E+00
   3.792000      0.0000000E+00
   3.804000      0.0000000E+00
   3.816000      0.0000000E+00
   3.828000      0.0000000E+00
   3.840000      0.0000000E+00
   3.852000      0.0000000E+00
   3.864000      0.0000000E+00
   3.876000      0.0000000E+00
   3.888000      0.0000000E+00
   3.900000      0.0000000E+00
   3.912000      0.0000000E+00
   3.924000      0.0000000E+00
   3.936000      0.0000000E+00
   3.948000      0.0000000E+00
   3.960000      0.0000000E+00
   3.972000      0.0000000E+00
   3.984000      0.0000000E+00
   3.996000      0.0000000E+00
   4.008000      0.0000000E+00
   4.020000      0.0000000E+00
   4.032000      0.0000000E+00
   4.044000      0.0000000E+00
   4.056000      0.0000000E+00
   4.068000      0.0000000E+00
   4.080000      0.0000000E+00
   4.092000      0.0000000E+00
   4.104000      0.0000000E+00
   4.116000      0.0000000E+00
   4.128000      0.0000000E+00
   4.140000      0.0000000E+00
   4.152000      0.0000000E+00
   4.164000      0.0000000E+00
   4.176000      0.0000000E+00
   4.188000      0.0000000E+00
   4.200000      0.0000000E+00
   4.212000      0.0000000E+00
   4.224000      0.0000000E+00
   4.236000      0.0000000E+00
   4.248000      0.0000000E+00
   4.260000      0.0000000E+00
   4.272000      0.0000000E+00
   4.284000      0.0000000E+00
   4.296000      0.0000000E+00
   4.308000      0.0000000E+00
   4.320000      0.0000000E+00
   4.332000      0.0000000E+00
   4.344000      0.0000000E+00
   4.356000      0.0000000E+00
   4.368000      0.0000000E+00
   4.380000      0.0000000E+00
   4.392000      0.0000000E+00
   4.404000      0.0000000E+00
   4.416000      0.0000000E+00
   4.428000      0.0000000E+00
   4.440000      0.0000000E+00
   4.452000      0.0000000E+00
   4.464000      0.0000000E+00
   4.476000      0.0000000E+00
   4.488000      0.0000000E+00
   4.500000      0.0000000E+00
   4.512000      0.0000000E+00
   4.524000      0.0000000E+00
   4.536000      0.0000000E+00
   4.548000      0.0000000E+00
   4.560000      0.0000000E+00
   4.572000      0.0000000E+00
   4.584000      0.0000000E+00
   4.596000      0.0000000E+00
   4.608000      0.0000000E+00
   4.620000      0.0000000E+00
   4.632000      0.0000000E+00
   4.644000      0.0000000E+00
   4.656000      0.0000000E+00
   4.668000      0.0000000E+00
   4.680000      0.0000000E+00
   4.692000      0.0000000E+00
   4.704000      0.0000000E+00
   4.716000      0.0000000E+00
   4.728000      0.0000000E+00
   4.740000      0.0000000E+00
   4.752000      0.0000000E+00
   4.764000      0.0000000E+00
   4.776000      0.0000000E+00
   4.788000      0.0000000E+00
   4.800000      0.0000000E+00
   4.812000      0.0000000E+00
   4.824000      0.0000000E+00
   4.836000      0.0000000E+00
   4.848000      0.0000000E+00
   4.860000      0.0000000E+00
   4.872000      0.0000000E+00
   4.884000      0.0000000E+00
   4.896000      0.0000000E+00
   4.908000      0.0000000E+00
   4.920000      0.0000000E+00
   4.932000      0.0000000E+00
   4.944000      0.0000000E+00
   4.956000      0.0000000E+00
   4.968000      0.0000000E+00
   4.980000      0.0000000E+00
   4.992000      0.0000000E+00
   5.004000      0.0000000E+00
   5.016000      0.0000000E+00
   5.028000      0.0000000E+00
   5.040000      0.0000000E+00
   5.052000      0.0000000E+00
   5.064000      0.0000000E+00
   5.076000      0.0000000E+00
   5.088000      0.0000000E+00
   5.100000      0.0000000E+00
   5.112000      0.0000000E+00
   5.124000      0.0000000E+00
   5.136000      0.0000000E+00
   5.148000      0.0000000E+00
   5.160000      0.0000000E+00
   5.172000      0.0000000E+00
   5.184000      0.0000000E+00
   5.196000      0.0000000E+00
   5.208000      0.0000000E+00
   5.220000      0.0000000E+00
   5.232000      0.0000000E+00
   5.244000      0.0000000E+00
   5.256000      0.0000000E+00
   5.268000      0.0000000E+00
   5.280000      0.0000000E+00
   5.292000      0.0000000E+00
   5.304000      0.0000000E+00
   5.316000      0.0000000E+00
   5.328000      0.0000000E+00
   5.340000      0.0000000E+00
   5.352000      0.0000000E+00
   5.364000      0.0000000E+00
   5.376000      0.0000000E+00
   5.388000      0.0000000E+00
   5.400000      0.0000000E+00
   5.412000      0.0000000E+00
   5.424000      0.0000000E+00
   5.436000      0.0000000E+00
   5.448000      0.0000000E+00
   5.460000      0.0000000E+00
   5.472000      0.0000000E+00
   5.484000      0.0000000E+00
   5.496000      0.0000000E+00
   5.508000      0.0000000E+00
   5.520000      0.0000000E+00
   5.532000      0.0000000E+00
   5.544000      0.0000000E+00
   5.556000      0.0000000E+00
   5.568000      0.0000000E+00
   5.580000      0.0000000E+00
   5.592000      0.0000000E+00
   5.604000      0.0000000E+00
   5.616000      0.0000000E+00
   5.628000      0.0000000E+00
   5.640000      0.0000000E+00
   5.652000      0.0000000E+00
   5.664000      0.0000000E+00
   5.676000      0.0000000E+00
   5.688000      0.0000000E+00
   5.700000      0.0000000E+00
   5.712000      0.0000000E+00
   5.724000      0.0000000E+00
   5.736000      0.0000000E+00
   5.748000      0.0000000E+00
   5.760000      0.0000000E+00
   5.772000      0.0000000E+00
   5.784000      0.0000000E+00
   5.796000      0.0000000E+00
   5.808000      0.0000000E+00
   5.820000      0.0000000E+00
   5.832000      0.0000000E+00
   5.844000      0.0000000E+00
   5.856000      0.0000000E+00
   5.868000      0.0000000E+00
   5.880000      0.0000000E+00
   5.892000      0.0000000E+00
   5.904000      0.0000000E+00
   5.916000      0.0000000E+00
   5.928000      0.0000000E+00
   5.940000      0.0000000E+00
   5.952000      0.0000000E+00
   5.964000      0.0000000E+00
   5.976000      0.0000000E+00
   5.988000      0.0000000E+00
   6.000000      0.0000000E+00
   6.012000      0.0000000E+00
   6.024000      0.0000000E+00
   6.036000      0.0000000E+00
   6.048000      0.0000000E+00
   6.060000      0.0000000E+00
   6.072000      0.0000000E+00
   6.084000      0.0000000E+00
   6.096000      0.0000000E+00
   6.108000      0.0000000E+00
   6.120000      0.0000000E+00
   6.132000      0.0000000E+00
   6.144000      0.0000000E+00
   6.156000      0.0000000E+00
   6.168000      0.0000000E+00
   6.180000      0.0000000E+00
   6.192000      0.0000000E+00
   6.204000      0.0000000E+00
   6.216000      0.0000000E+00
   6.228000      0.0000000E+00
   6.240000      0.0000000E+00
   6.252000      0.0000000E+00
   6.264000      0.0000000E+00
   6.276000      0.0000000E+00
   6.288000      0.0000000E+00
   6.300000      0.0000000E+00
   6.312000      0.0000000E+00
   6.324000      0.0000000E+00
   6.336000      0.0000000E+00
   6.348000      0.0000000E+00
   6.360000      0.0000000E+00
   6.372000      0.0000000E+00
   6.384000      0.0000000E+00
   6.396000      0.0000000E+00
   6.408000      0.0000000E+00
   6.420000      0.0000000E+00
   6.432000      0.0000000E+00
   6.444000      0.0000000E+00
   6.456000      0.0000000E+00
   6.468000      0.0000000E+00
   6.480000      0.0000000E+00
   6.492000      0.0000000E+00
   6.504000      0.0000000E+00
   6.516000      0.0000000E+00
   6.528000      0.0000000E+00
   6.540000      0.0000000E+00
   6.552000      0.0000000E+00
   6.564000      0.0000000E+00
   6.576000      0.0000000E+00
   6.588000      0.0000000E+00
   6.600000      0.0000000E+00
   6.612000      0.0000000E+00
   6.624000      0.0000000E+00
   6.636000      0.0000000E+00
   6.648000     -1.1815393E-38
   6.660000      0.0000000E+00
   6.672000      0.0000000E+00
   6.684000      0.0000000E+00
   6.696000      1.4934392E-38
   6.708000      2.3980620E-38
   6.720000      3.0742257E-38
   6.732000      3.3444171E-38
   6.744000      2.9591323E-38
   6.756000      2.1093156E-38
   6.768000      0.0000000E+00
   6.780000      0.0000000E+00
   6.792000      2.2458224E-38
   6.804000      1.6777709E-38
   6.816000      0.0000000E+00
   6.828000     -4.8500263E-38
   6.840000     -1.1444261E-37
   6.852000     -2.0427095E-37
   6.864000     -2.8958974E-37
   6.876000     -3.5142261E-37
   6.888000     -3.6579596E-37
   6.900000     -3.1358974E-37
   6.912000     -2.1897883E-37
   6.924000     -8.7620945E-38
   6.936000      7.4258740E-38
   6.948000      2.3607225E-37
   6.960000      4.2436147E-37
   6.972000      6.3412285E-37
   6.984000      8.2890970E-37
   6.996000      9.1895216E-37
   7.008000      8.8288234E-37
   7.020000      6.6690516E-37
   7.032000      2.8023893E-37
   7.044000     -3.1749751E-37
   7.056000     -9.8366076E-37
   7.068000     -1.3786514E-36
   7.080000     -1.1598238E-36
   7.092000     -1.9447834E-37
   7.104000      1.3670012E-36
   7.116000      3.5101173E-36
   7.128000      6.1218797E-36
   7.140000      8.8764008E-36
   7.152000      1.1282348E-35
   7.164000      1.2765127E-35
   7.176000      1.2888003E-35
   7.188000      1.1190950E-35
   7.200000      7.4377045E-36
   7.212000      1.5125123E-36
   7.224000     -6.4171244E-36
   7.236000     -1.5854291E-35
   7.248000     -2.5837329E-35
   7.260000     -3.5572273E-35
   7.272000     -4.3959755E-35
   7.284000     -4.9749148E-35
   7.296000     -5.1644627E-35
   7.308000     -4.8625581E-35
   7.320000     -3.9773491E-35
   7.332000     -2.4589867E-35
   7.344000     -2.9986978E-36
   7.356000      2.4493353E-35
   7.368000      5.6588109E-35
   7.380000      9.1421473E-35
   7.392000      1.2614304E-34
   7.404000      1.5740215E-34
   7.416000      1.8121416E-34
   7.428000      1.9326473E-34
   7.440000      1.8920118E-34
   7.452000      1.6501299E-34
   7.464000      1.1751378E-34
   7.476000      4.4891240E-35
   7.488000     -5.2537486E-35
   7.500000     -1.7188497E-34
   7.512000     -3.0715617E-34
   7.524000     -4.4904008E-34
   7.536000     -5.8502811E-34
   7.548000     -6.9983502E-34
   7.560000     -7.7629711E-34
   7.572000     -7.9656208E-34
   7.584000     -7.4372132E-34
   7.596000     -6.0368201E-34
   7.608000     -3.6723445E-34
   7.620000     -3.2200309E-35
   7.632000      3.9457801E-34
   7.644000      8.9556883E-34
   7.656000      1.4415663E-33
   7.668000      1.9915773E-33
   7.680000      2.4938217E-33
   7.692000      2.8880465E-33
   7.704000      3.1092002E-33
   7.716000      3.0924487E-33
   7.728000      2.7793793E-33
   7.740000      2.1250940E-33
   7.752000      1.1057366E-33
   7.764000     -2.7413226E-34
   7.776000     -1.9750460E-33
   7.788000     -3.9178518E-33
   7.800000     -5.9815078E-33
   7.812000     -8.0042687E-33
   7.824000     -9.7889630E-33
   7.836000     -1.1112814E-32
   7.848000     -1.1741953E-32
   7.860000     -1.1450369E-32
   7.872000     -1.0042574E-32
   7.884000     -7.3787382E-33
   7.896000     -3.4005714E-33
   7.908000      1.8442751E-33
   7.920000      8.1818756E-33
   7.932000      1.5298556E-32
   7.944000      2.2737071E-32
   7.956000      2.9904955E-32
   7.968000      3.6096969E-32
   7.980000      4.0532776E-32
   7.992000      4.2409758E-32
   8.004000      4.0969622E-32
   8.016000      3.5575808E-32
   8.028000      2.5797258E-32
   8.040000      1.1492468E-32
   8.052000     -7.1134975E-33
   8.064000     -2.9367358E-32
   8.076000     -5.4150082E-32
   8.088000     -7.9871979E-32
   8.100000     -1.0450782E-31
   8.112000     -1.2567763E-31
   8.124000     -1.4077577E-31
   8.136000     -1.4714748E-31
   8.148000     -1.4230753E-31
   8.160000     -1.2419124E-31
   8.172000     -9.1422839E-32
   8.184000     -4.3581985E-32
   8.196000      1.8555056E-32
   8.208000      9.2825233E-32
   8.220000      1.7556659E-31
   8.232000      2.6160998E-31
   8.244000      3.4439711E-31
   8.256000      4.1624053E-31
   8.268000      4.6873416E-31
   8.280000      4.9330984E-31
   8.292000      4.8192316E-31
   8.304000      4.2783899E-31
   8.316000      3.2646918E-31
   8.328000      1.7620502E-31
   8.340000     -2.0827387E-32
   8.352000     -2.5816675E-31
   8.364000     -5.2465327E-31
   8.376000     -8.0438053E-31
   8.388000     -1.0770306E-30
   8.400000     -1.3186428E-30
   8.412000     -1.5028392E-30
   8.424000     -1.6025014E-30
   8.436000     -1.5918471E-30
   8.448000     -1.4488214E-30
   8.460000     -1.1576666E-30
   8.472000     -7.1149913E-31
   8.484000     -1.1468034E-31
   8.496000      6.1525031E-31
   8.508000      1.4463268E-30
   8.520000      2.3318328E-30
   8.532000      3.2111120E-30
   8.544000      4.0116748E-30
   8.556000      4.6526905E-30
   8.568000      5.0498538E-30
   8.580000      5.1215096E-30
   8.592000      4.7957875E-30
   8.604000      4.0183742E-30
   8.616000      2.7604108E-30
   8.628000      1.0259193E-30
   8.640000     -1.1419532E-30
   8.652000     -3.6565954E-30
   8.664000     -6.3862347E-30
   8.676000     -9.1555332E-30
   8.688000     -1.1751007E-29
   8.700000     -1.3930581E-29
   8.712000     -1.5437322E-29
   8.724000     -1.6017079E-29
   8.736000     -1.5439372E-29
   8.748000     -1.3520496E-29
   8.760000     -1.0147408E-29
   8.772000     -5.3006651E-30
   8.784000      9.2566052E-31
   8.796000      8.3092261E-30
   8.808000      1.6492047E-29
   8.820000      2.4982513E-29
   8.832000      3.3168492E-29
   8.844000      4.0342572E-29
   8.856000      4.5739822E-29
   8.868000      4.8587448E-29
   8.880000      4.8164694E-29
   8.892000      4.3870123E-29
   8.904000      3.5292383E-29
   8.916000      2.2279451E-29
   8.928000      5.0005206E-30
   8.940000     -1.6005820E-29
   8.952000     -3.9803537E-29
   8.964000     -6.5057354E-29
   8.976000     -9.0062346E-29
   8.988000     -1.1280846E-28
   9.000000     -1.3108144E-28
   9.012000     -1.4259921E-28
   9.024000     -1.4517904E-28
   9.036000     -1.3692854E-28
   9.048000     -1.1644934E-28
   9.060000     -8.3039888E-29
   9.072000     -3.6880872E-29
   9.084000      2.0814510E-29
   9.096000      8.7703991E-29
   9.108000      1.6029096E-28
   9.120000      2.3398551E-28
   9.132000      3.0326309E-28
   9.144000      3.6192571E-28
   9.156000      4.0346403E-28
   9.168000      4.2150994E-28
   9.180000      4.1036025E-28
   9.192000      3.6554312E-28
   9.204000      2.8438982E-28
   9.216000      1.6656837E-28
   9.228000      1.4529563E-29
   9.240000     -1.6618523E-28
   9.252000     -3.6682297E-28
   9.264000     -5.7552733E-28
   9.276000     -7.7770866E-28
   9.288000     -9.5669203E-28
   9.300000     -1.0946415E-27
   9.312000     -1.1737357E-27
   9.324000     -1.1775482E-27
   9.336000     -1.0925573E-27
   9.348000     -9.0969250E-28
   9.360000     -6.2580099E-28
   9.372000     -2.4490864E-28
   9.384000      2.2085958E-28
   9.396000      7.5082750E-28
   9.408000      1.3158980E-27
   9.420000      1.8793533E-27
   9.432000      2.3983754E-27
   9.444000      2.8262866E-27
   9.456000      3.1154594E-27
   9.468000      3.2207798E-27
   9.480000      3.1034870E-27
   9.492000      2.7351578E-27
   9.504000      2.1015541E-27
   9.516000      1.2060143E-27
   9.528000      7.2058398E-29
   9.540000     -1.2551173E-27
   9.552000     -2.7085464E-27
   9.564000     -4.2010271E-27
   9.576000     -5.6284251E-27
   9.588000     -6.8747703E-27
   9.600000     -7.8190375E-27
   9.612000     -8.3433689E-27
   9.624000     -8.3423296E-27
   9.636000     -7.7326596E-27
   9.648000     -6.4628801E-27
   9.660000     -4.5219922E-27
   9.672000     -1.9464991E-27
   9.684000      1.1750303E-27
   9.696000      4.7005579E-27
   9.708000      8.4369067E-27
   9.720000      1.2146195E-26
   9.732000      1.5556514E-26
   9.744000      1.8376652E-26
   9.756000      2.0314402E-26
   9.768000      2.1097598E-26
   9.780000      2.0496743E-26
   9.792000      1.8347817E-26
   9.804000      1.4573603E-26
   9.816000      9.2018098E-27
   9.828000      2.3782049E-27
   9.840000     -5.6268632E-27
   9.852000     -1.4419960E-26
   9.864000     -2.3495057E-26
   9.876000     -3.2253527E-26
   9.888000     -4.0033486E-26
   9.900000     -4.6147731E-26
   9.912000     -4.9928649E-26
   9.924000     -5.0777978E-26
   9.936000     -4.8218485E-26
   9.948000     -4.1944227E-26
   9.960000     -3.1865657E-26
   9.972000     -1.8145775E-26
   9.984000     -1.2235460E-27
   9.996000      1.8178660E-26
   10.00800      3.9066290E-26
   10.02000      6.0204213E-26
   10.03200      8.0169130E-26
   10.04400      9.7422103E-26
   10.05600      1.1039875E-25
   10.06800      1.1761337E-25
   10.08000      1.1777171E-25
   10.09200      1.0988591E-25
   10.10400      9.3384017E-26
   10.11600      6.8205980E-26
   10.12800      3.4877963E-26
   10.14000     -5.4432342E-27
   10.15200     -5.0962399E-26
   10.16400     -9.9280413E-26
   10.17600     -1.4747440E-25
   10.18800     -1.9222444E-25
   10.20000     -2.2998466E-25
   10.21200     -2.5719350E-25
   10.22400     -2.7051451E-25
   10.23600     -2.6709558E-25
   10.24800     -2.4483225E-25
   10.26000     -2.0261751E-25
   10.27200     -1.4055999E-25
   10.28400     -6.0150545E-26
   10.29600      3.5640973E-26
   10.30800      1.4235569E-25
   10.32000      2.5413605E-25
   10.33200      3.6392547E-25
   10.34400      4.6377976E-25
   10.35600      5.4528674E-25
   10.36800      6.0008112E-25
   10.38000      6.2043457E-25
   10.39200      5.9989179E-25
   10.40400      5.3391561E-25
   10.41600      4.2049797E-25
   10.42800      2.6068882E-25
   10.44000      5.8992448E-26
   10.45200     -1.7641762E-25
   10.46400     -4.3370976E-25
   10.47600     -6.9766730E-25
   10.48800     -9.5024745E-25
   10.50000     -1.1714316E-24
   10.51200     -1.3403564E-24
   10.52400     -1.4366888E-24
   10.53600     -1.4421853E-24
   10.54800     -1.3423571E-24
   10.56000     -1.1281318E-24
   10.57200     -7.9739470E-25
   10.58400     -3.5627207E-25
   10.59600      1.7997876E-25
   10.60800      7.8660604E-25
   10.62000      1.4296433E-24
   10.63200      2.0669201E-24
   10.64400      2.6498522E-24
   10.65600      3.1260102E-24
   10.66800      3.4424060E-24
   10.68000      3.5493716E-24
   10.69200      3.4048373E-24
   10.70400      2.9787609E-24
   10.71600      2.2573839E-24
   10.72800      1.2469773E-24
   10.74000     -2.3305219E-26
   10.75200     -1.4998305E-24
   10.76400     -3.1044834E-24
   10.77600     -4.7365280E-24
   10.78800     -6.2765047E-24
   10.80000     -7.5922127E-24
   10.81200     -8.5466618E-24
   10.82400     -9.0077266E-24
   10.83600     -8.8590310E-24
   10.84800     -8.0114481E-24
   10.86000     -6.4144114E-24
   10.87200     -4.0661563E-24
   10.88400     -1.0219016E-24
   10.89600      2.6009971E-24
   10.90800      6.6218176E-24
   10.92000      1.0799922E-23
   10.93200      1.4843387E-23
   10.94400      1.8423018E-23
   10.95600      2.1191505E-23
   10.96800      2.2807135E-23
   10.98000      2.2960925E-23
   10.99200      2.1405657E-23
   11.00400      1.7984849E-23
   11.01600      1.2659405E-23
   11.02800      5.5295146E-24
   11.04000     -3.1506967E-24
   11.05200     -1.2968066E-23
   11.06400     -2.3356781E-23
   11.07600     -3.3617614E-23
   11.08800     -4.2950570E-23
   11.10000     -5.0500559E-23
   11.11200     -5.5414607E-23
   11.12400     -5.6908041E-23
   11.13600     -5.4335856E-23
   11.14800     -4.7264579E-23
   11.16000     -3.5539083E-23
   11.17200     -1.9338326E-23
   11.18400      7.8605157E-25
   11.19600      2.3894051E-23
   11.20800      4.8669395E-23
   11.22000      7.3462804E-23
   11.23200      9.6368031E-23
   11.24400      1.1532992E-22
   11.25600      1.2828109E-22
   11.26800      1.3330103E-22
   11.28000      1.2878893E-22
   11.29200      1.1363856E-22
   11.30400      8.7402254E-23
   11.31600      5.0429274E-23
   11.32800      3.9636076E-24
   11.34000     -4.9812606E-23
   11.35200     -1.0780215E-22
   11.36400     -1.6609100E-22
   11.37600     -2.2012599E-22
   11.38800     -2.6497058E-22
   11.40000     -2.9563122E-22
   11.41200     -3.0744015E-22
   11.42400     -2.9647342E-22
   11.43600     -2.5997796E-22
   11.44800     -1.9677529E-22
   11.46000     -1.0760709E-22
   11.47200      4.6134246E-24