 -0.1200000      0.0000000E+00
 -0.1080000      0.0000000E+00
 -9.6000001E-02  0.0000000E+00
 -8.3999999E-02  0.0000000E+00
 -7.1999997E-02  0.0000000E+00
 -5.9999999E-02  0.0000000E+00
 -4.8000000E-02  0.0000000E+00
 -3.5999998E-02  0.0000000E+00
 -2.4000000E-02  0.0000000E+00
 -1.2000000E-02  0.0000000E+00
  6.9388939E-18  0.0000000E+00
  1.2000000E-02  0.0000000E+00
  2.4000000E-02  0.0000000E+00
  3.5999998E-02  0.0000000E+00
  4.8000000E-02  0.0000000E+00
  5.9999999E-02  0.0000000E+00
  7.1999997E-02  0.0000000E+00
  8.3999999E-02  0.0000000E+00
  9.6000001E-02  0.0000000E+00
  0.1080000      0.0000000E+00
  0.1200000      0.0000000E+00
  0.1320000      0.0000000E+00
  0.1440000      0.0000000E+00
  0.1560000      0.0000000E+00
  0.1680000      0.0000000E+00
  0.1800000      0.0000000E+00
  0.1920000      0.0000000E+00
  0.2040000      0.0000000E+00
  0.2160000      0.0000000E+00
  0.2280000      0.0000000E+00
  0.2400000      0.0000000E+00
  0.2520000      0.0000000E+00
  0.2640000      0.0000000E+00
  0.2760000      0.0000000E+00
  0.2880000      0.0000000E+00
  0.3000000      0.0000000E+00
  0.3120000      0.0000000E+00
  0.3240000      0.0000000E+00
  0.3360000      0.0000000E+00
  0.3480000      0.0000000E+00
  0.3600000      0.0000000E+00
  0.3720000      0.0000000E+00
  0.3840000      0.0000000E+00
  0.3960000      0.0000000E+00
  0.4080000      0.0000000E+00
  0.4200000      0.0000000E+00
  0.4320000      0.0000000E+00
  0.4440000      0.0000000E+00
  0.4560000      0.0000000E+00
  0.4680000      0.0000000E+00
  0.4800000      0.0000000E+00
  0.4920000      0.0000000E+00
  0.5040000      0.0000000E+00
  0.5160000      0.0000000E+00
  0.5280000      0.0000000E+00
  0.5400000      0.0000000E+00
  0.5520000      0.0000000E+00
  0.5640000      0.0000000E+00
  0.5760000      0.0000000E+00
  0.5880000      0.0000000E+00
  0.6000000      0.0000000E+00
  0.6120000      0.0000000E+00
  0.6240000      0.0000000E+00
  0.6360000      0.0000000E+00
  0.6480000      0.0000000E+00
  0.6600000      0.0000000E+00
  0.6720000      0.0000000E+00
  0.6840000      0.0000000E+00
  0.6960000      0.0000000E+00
  0.7080000      0.0000000E+00
  0.7200000      0.0000000E+00
  0.7320000      0.0000000E+00
  0.7440000      0.0000000E+00
  0.7560000      0.0000000E+00
  0.7680000      0.0000000E+00
  0.7800000      0.0000000E+00
  0.7920000      0.0000000E+00
  0.8040000      0.0000000E+00
  0.8160000      0.0000000E+00
  0.8280000      0.0000000E+00
  0.8400000      0.0000000E+00
  0.8520000      0.0000000E+00
  0.8640000      0.0000000E+00
  0.8760000      0.0000000E+00
  0.8880000      0.0000000E+00
  0.9000000      0.0000000E+00
  0.9120000      0.0000000E+00
  0.9240000      0.0000000E+00
  0.9360000      0.0000000E+00
  0.9480000      0.0000000E+00
  0.9600000      0.0000000E+00
  0.9720000      0.0000000E+00
  0.9840000      0.0000000E+00
  0.9960000      0.0000000E+00
   1.008000      0.0000000E+00
   1.020000      0.0000000E+00
   1.032000      0.0000000E+00
   1.044000      0.0000000E+00
   1.056000      0.0000000E+00
   1.068000      0.0000000E+00
   1.080000      0.0000000E+00
   1.092000      0.0000000E+00
   1.104000      0.0000000E+00
   1.116000      0.0000000E+00
   1.128000      0.0000000E+00
   1.140000      0.0000000E+00
   1.152000      0.0000000E+00
   1.164000      0.0000000E+00
   1.176000      0.0000000E+00
   1.188000      0.0000000E+00
   1.200000      0.0000000E+00
   1.212000      0.0000000E+00
   1.224000      0.0000000E+00
   1.236000      0.0000000E+00
   1.248000      0.0000000E+00
   1.260000      0.0000000E+00
   1.272000      0.0000000E+00
   1.284000      0.0000000E+00
   1.296000      0.0000000E+00
   1.308000      0.0000000E+00
   1.320000      0.0000000E+00
   1.332000      0.0000000E+00
   1.344000      0.0000000E+00
   1.356000      0.0000000E+00
   1.368000      0.0000000E+00
   1.380000      0.0000000E+00
   1.392000      0.0000000E+00
   1.404000      0.0000000E+00
   1.416000      0.0000000E+00
   1.428000      0.0000000E+00
   1.440000      0.0000000E+00
   1.452000      0.0000000E+00
   1.464000      0.0000000E+00
   1.476000      0.0000000E+00
   1.488000      0.0000000E+00
   1.500000      0.0000000E+00
   1.512000      0.0000000E+00
   1.524000      0.0000000E+00
   1.536000      0.0000000E+00
   1.548000      0.0000000E+00
   1.560000      0.0000000E+00
   1.572000      0.0000000E+00
   1.584000      0.0000000E+00
   1.596000      0.0000000E+00
   1.608000      0.0000000E+00
   1.620000      0.0000000E+00
   1.632000      0.0000000E+00
   1.644000      0.0000000E+00
   1.656000      0.0000000E+00
   1.668000      0.0000000E+00
   1.680000      0.0000000E+00
   1.692000      0.0000000E+00
   1.704000      0.0000000E+00
   1.716000      0.0000000E+00
   1.728000      0.0000000E+00
   1.740000      0.0000000E+00
   1.752000      0.0000000E+00
   1.764000      0.0000000E+00
   1.776000      0.0000000E+00
   1.788000      0.0000000E+00
   1.800000      0.0000000E+00
   1.812000      0.0000000E+00
   1.824000      0.0000000E+00
   1.836000      0.0000000E+00
   1.848000      0.0000000E+00
   1.860000      0.0000000E+00
   1.872000      0.0000000E+00
   1.884000      0.0000000E+00
   1.896000      0.0000000E+00
   1.908000      0.0000000E+00
   1.920000      0.0000000E+00
   1.932000      0.0000000E+00
   1.944000      0.0000000E+00
   1.956000      0.0000000E+00
   1.968000      0.0000000E+00
   1.980000      0.0000000E+00
   1.992000      0.0000000E+00
   2.004000      0.0000000E+00
   2.016000      0.0000000E+00
   2.028000      0.0000000E+00
   2.040000      0.0000000E+00
   2.052000      0.0000000E+00
   2.064000      0.0000000E+00
   2.076000      0.0000000E+00
   2.088000      0.0000000E+00
   2.100000      0.0000000E+00
   2.112000      0.0000000E+00
   2.124000      0.0000000E+00
   2.136000      0.0000000E+00
   2.148000      0.0000000E+00
   2.160000      0.0000000E+00
   2.172000      0.0000000E+00
   2.184000      0.0000000E+00
   2.196000      0.0000000E+00
   2.208000      0.0000000E+00
   2.220000      0.0000000E+00
   2.232000      0.0000000E+00
   2.244000      0.0000000E+00
   2.256000      0.0000000E+00
   2.268000      0.0000000E+00
   2.280000      0.0000000E+00
   2.292000      0.0000000E+00
   2.304000      0.0000000E+00
   2.316000      0.0000000E+00
   2.328000      0.0000000E+00
   2.340000      0.0000000E+00
   2.352000      0.0000000E+00
   2.364000      0.0000000E+00
   2.376000      0.0000000E+00
   2.388000      0.0000000E+00
   2.400000      0.0000000E+00
   2.412000      0.0000000E+00
   2.424000      0.0000000E+00
   2.436000      0.0000000E+00
   2.448000      0.0000000E+00
   2.460000      0.0000000E+00
   2.472000      0.0000000E+00
   2.484000      0.0000000E+00
   2.496000      0.0000000E+00
   2.508000      0.0000000E+00
   2.520000      0.0000000E+00
   2.532000      0.0000000E+00
   2.544000      0.0000000E+00
   2.556000      0.0000000E+00
   2.568000      0.0000000E+00
   2.580000      0.0000000E+00
   2.592000      0.0000000E+00
   2.604000      0.0000000E+00
   2.616000      0.0000000E+00
   2.628000      0.0000000E+00
   2.640000      0.0000000E+00
   2.652000      0.0000000E+00
   2.664000      0.0000000E+00
   2.676000      0.0000000E+00
   2.688000      0.0000000E+00
   2.700000      0.0000000E+00
   2.712000      0.0000000E+00
   2.724000      0.0000000E+00
   2.736000      0.0000000E+00
   2.748000      0.0000000E+00
   2.760000      0.0000000E+00
   2.772000      0.0000000E+00
   2.784000      0.0000000E+00
   2.796000      0.0000000E+00
   2.808000      0.0000000E+00
   2.820000      0.0000000E+00
   2.832000      0.0000000E+00
   2.844000      0.0000000E+00
   2.856000      0.0000000E+00
   2.868000      0.0000000E+00
   2.880000      0.0000000E+00
   2.892000      0.0000000E+00
   2.904000      0.0000000E+00
   2.916000      0.0000000E+00
   2.928000      0.0000000E+00
   2.940000      0.0000000E+00
   2.952000      0.0000000E+00
   2.964000      0.0000000E+00
   2.976000      0.0000000E+00
   2.988000      0.0000000E+00
   3.000000      0.0000000E+00
   3.012000      0.0000000E+00
   3.024000      0.0000000E+00
   3.036000      0.0000000E+00
   3.048000      0.0000000E+00
   3.060000      0.0000000E+00
   3.072000      0.0000000E+00
   3.084000      0.0000000E+00
   3.096000      0.0000000E+00
   3.108000      0.0000000E+00
   3.120000      0.0000000E+00
   3.132000      0.0000000E+00
   3.144000      0.0000000E+00
   3.156000      0.0000000E+00
   3.168000      0.0000000E+00
   3.180000      0.0000000E+00
   3.192000      0.0000000E+00
   3.204000      0.0000000E+00
   3.216000      0.0000000E+00
   3.228000      0.0000000E+00
   3.240000      0.0000000E+00
   3.252000      0.0000000E+00
   3.264000      0.0000000E+00
   3.276000      0.0000000E+00
   3.288000      0.0000000E+00
   3.300000      0.0000000E+00
   3.312000      0.0000000E+00
   3.324000      0.0000000E+00
   3.336000      0.0000000E+00
   3.348000      0.0000000E+00
   3.360000      0.0000000E+00
   3.372000      0.0000000E+00
   3.384000      0.0000000E+00
   3.396000      0.0000000E+00
   3.408000      0.0000000E+00
   3.420000      0.0000000E+00
   3.432000      0.0000000E+00
   3.444000      0.0000000E+00
   3.456000      0.0000000E+00
   3.468000      0.0000000E+00
   3.480000      0.0000000E+00
   3.492000      0.0000000E+00
   3.504000      0.0000000E+00
   3.516000      0.0000000E+00
   3.528000      0.0000000E+00
   3.540000      0.0000000E+00
   3.552000      0.0000000E+00
   3.564000      0.0000000E+00
   3.576000      0.0000000E+00
   3.588000      0.0000000E+00
   3.600000      0.0000000E+00
   3.612000      0.0000000E+00
   3.624000      0.0000000E+00
   3.636000      0.0000000E+00
   3.648000      0.0000000E+00
   3.660000      0.0000000E+00
   3.672000      0.0000000E+00
   3.684000      0.0000000E+00
   3.696000      0.0000000E+00
   3.708000      0.0000000E+00
   3.720000      0.0000000E+00
   3.732000      0.0000000E+00
   3.744000      0.0000000E+00
   3.756000      0.0000000E+00
   3.768000      0.0000000E+00
   3.780000      0.0000000E+00
   3.792000      0.0000000E+00
   3.804000      0.0000000E+00
   3.816000      0.0000000E+00
   3.828000      0.0000000E+00
   3.840000      0.0000000E+00
   3.852000      0.0000000E+00
   3.864000      0.0000000E+00
   3.876000      0.0000000E+00
   3.888000      0.0000000E+00
   3.900000      0.0000000E+00
   3.912000      0.0000000E+00
   3.924000      0.0000000E+00
   3.936000      0.0000000E+00
   3.948000      0.0000000E+00
   3.960000      0.0000000E+00
   3.972000      0.0000000E+00
   3.984000      0.0000000E+00
   3.996000      0.0000000E+00
   4.008000      0.0000000E+00
   4.020000      0.0000000E+00
   4.032000      0.0000000E+00
   4.044000      0.0000000E+00
   4.056000      0.0000000E+00
   4.068000      0.0000000E+00
   4.080000      0.0000000E+00
   4.092000      0.0000000E+00
   4.104000      0.0000000E+00
   4.116000      0.0000000E+00
   4.128000      0.0000000E+00
   4.140000      0.0000000E+00
   4.152000      0.0000000E+00
   4.164000      0.0000000E+00
   4.176000      0.0000000E+00
   4.188000      0.0000000E+00
   4.200000      0.0000000E+00
   4.212000      0.0000000E+00
   4.224000      0.0000000E+00
   4.236000      0.0000000E+00
   4.248000      0.0000000E+00
   4.260000      0.0000000E+00
   4.272000      0.0000000E+00
   4.284000      0.0000000E+00
   4.296000      0.0000000E+00
   4.308000      0.0000000E+00
   4.320000      0.0000000E+00
   4.332000      0.0000000E+00
   4.344000      0.0000000E+00
   4.356000      0.0000000E+00
   4.368000      0.0000000E+00
   4.380000      0.0000000E+00
   4.392000      0.0000000E+00
   4.404000      0.0000000E+00
   4.416000      0.0000000E+00
   4.428000      0.0000000E+00
   4.440000      0.0000000E+00
   4.452000      0.0000000E+00
   4.464000      0.0000000E+00
   4.476000      0.0000000E+00
   4.488000      0.0000000E+00
   4.500000      0.0000000E+00
   4.512000      0.0000000E+00
   4.524000      0.0000000E+00
   4.536000      0.0000000E+00
   4.548000      0.0000000E+00
   4.560000      0.0000000E+00
   4.572000      0.0000000E+00
   4.584000      0.0000000E+00
   4.596000      0.0000000E+00
   4.608000      0.0000000E+00
   4.620000      0.0000000E+00
   4.632000      0.0000000E+00
   4.644000      0.0000000E+00
   4.656000      0.0000000E+00
   4.668000      0.0000000E+00
   4.680000      0.0000000E+00
   4.692000      0.0000000E+00
   4.704000      0.0000000E+00
   4.716000      0.0000000E+00
   4.728000      0.0000000E+00
   4.740000      0.0000000E+00
   4.752000      0.0000000E+00
   4.764000      0.0000000E+00
   4.776000      0.0000000E+00
   4.788000      0.0000000E+00
   4.800000      0.0000000E+00
   4.812000      0.0000000E+00
   4.824000      0.0000000E+00
   4.836000      0.0000000E+00
   4.848000      0.0000000E+00
   4.860000      0.0000000E+00
   4.872000      0.0000000E+00
   4.884000      0.0000000E+00
   4.896000      0.0000000E+00
   4.908000      0.0000000E+00
   4.920000      0.0000000E+00
   4.932000      0.0000000E+00
   4.944000      0.0000000E+00
   4.956000      0.0000000E+00
   4.968000      0.0000000E+00
   4.980000      0.0000000E+00
   4.992000      0.0000000E+00
   5.004000      0.0000000E+00
   5.016000      0.0000000E+00
   5.028000      0.0000000E+00
   5.040000      0.0000000E+00
   5.052000      0.0000000E+00
   5.064000      0.0000000E+00
   5.076000      0.0000000E+00
   5.088000      0.0000000E+00
   5.100000      0.0000000E+00
   5.112000      0.0000000E+00
   5.124000      0.0000000E+00
   5.136000      0.0000000E+00
   5.148000      0.0000000E+00
   5.160000      0.0000000E+00
   5.172000      0.0000000E+00
   5.184000      0.0000000E+00
   5.196000      0.0000000E+00
   5.208000      1.3903102E-38
   5.220000      3.4080394E-38
   5.232000      6.7243700E-38
   5.244000      1.0601944E-37
   5.256000      1.4423906E-37
   5.268000      1.9949098E-37
   5.280000      2.4672962E-37
   5.292000      2.5987625E-37
   5.304000      2.3913129E-37
   5.316000      1.7876111E-37
   5.328000      9.4129242E-38
   5.340000      0.0000000E+00
   5.352000     -6.6765398E-38
   5.364000     -6.1798030E-38
   5.376000      1.1837421E-38
   5.388000      1.4795726E-37
   5.400000      3.2008240E-37
   5.412000      4.8403360E-37
   5.424000      6.0284192E-37
   5.436000      6.3004599E-37
   5.448000      5.7251719E-37
   5.460000      4.8211250E-37
   5.472000      3.7082285E-37
   5.484000      2.6502854E-37
   5.496000      1.5091797E-37
   5.508000      0.0000000E+00
   5.520000     -2.3040270E-37
   5.532000     -5.1948264E-37
   5.544000     -8.8551866E-37
   5.556000     -1.2898224E-36
   5.568000     -1.6704966E-36
   5.580000     -1.9129477E-36
   5.592000     -1.9323250E-36
   5.604000     -1.7970357E-36
   5.616000     -1.4338729E-36
   5.628000     -8.8381827E-37
   5.640000     -2.1189947E-37
   5.652000      2.4693444E-37
   5.664000      3.9355380E-37
   5.676000      1.9845951E-37
   5.688000     -5.4105214E-37
   5.700000     -1.8278311E-36
   5.712000     -3.5926215E-36
   5.724000     -5.6736400E-36
   5.736000     -8.0265436E-36
   5.748000     -1.0523330E-35
   5.760000     -1.2975411E-35
   5.772000     -1.5270050E-35
   5.784000     -1.7192727E-35
   5.796000     -1.8316776E-35
   5.808000     -1.8059277E-35
   5.820000     -1.5654764E-35
   5.832000     -1.0336564E-35
   5.844000     -1.1388430E-36
   5.856000      1.2662960E-35
   5.868000      3.1361618E-35
   5.880000      5.4732423E-35
   5.892000      8.1527496E-35
   5.904000      1.0921891E-34
   5.916000      1.3406812E-34
   5.928000      1.5110599E-34
   5.940000      1.5442889E-34
   5.952000      1.3759161E-34
   5.964000      9.4477982E-35
   5.976000      2.0297793E-35
   5.988000     -8.7177950E-35
   6.000000     -2.2635260E-34
   6.012000     -3.9062834E-34
   6.024000     -5.6751706E-34
   6.036000     -7.3819727E-34
   6.048000     -8.7774641E-34
   6.060000     -9.5634262E-34
   6.072000     -9.4145058E-34
   6.084000     -8.0112741E-34
   6.096000     -5.0834809E-34
   6.108000     -4.6162065E-35
   6.120000      5.8676376E-34
   6.132000      1.3707524E-33
   6.144000      2.2605994E-33
   6.156000      3.1827637E-33
   6.168000      4.0350974E-33
   6.180000      4.6900057E-33
   6.192000      5.0016484E-33
   6.204000      4.8176802E-33
   6.216000      3.9954076E-33
   6.228000      2.4221063E-33
   6.240000      3.8056234E-35
   6.252000     -3.1394166E-33
   6.264000     -6.9935169E-33
   6.276000     -1.1290306E-32
   6.288000     -1.5669344E-32
   6.300000     -1.9646285E-32
   6.312000     -2.2630710E-32
   6.324000     -2.3961788E-32
   6.336000     -2.2962968E-32
   6.348000     -1.9015154E-32
   6.360000     -1.1645520E-32
   6.372000     -6.2642902E-34
   6.384000      1.3923778E-32
   6.396000      3.1449108E-32
   6.408000      5.0886480E-32
   6.420000      7.0632981E-32
   6.432000      8.8564330E-32
   6.444000      1.0211757E-31
   6.456000      1.0844737E-31
   6.468000      1.0466012E-31
   6.480000      8.8122209E-32
   6.492000      5.6829827E-32
   6.504000      9.8169008E-33
   6.516000     -5.2432779E-32
   6.528000     -1.2761391E-31
   6.540000     -2.1132106E-31
   6.552000     -2.9692035E-31
   6.564000     -3.7562903E-31
   6.576000     -4.3685277E-31
   6.588000     -4.6881762E-31
   6.600000     -4.5951132E-31
   6.612000     -3.9791876E-31
   6.624000     -2.7550049E-31
   6.636000     -8.7822458E-32
   6.648000      1.6379670E-31
   6.660000      4.7079381E-31
   6.672000      8.1622942E-31
   6.684000      1.1742378E-30
   6.696000      1.5102803E-30
   6.708000      1.7823974E-30
   6.720000      1.9436013E-30
   6.732000      1.9454687E-30
   6.744000      1.7428812E-30
   6.756000      1.2997220E-30
   6.768000      5.9518914E-31
   6.780000     -3.6977958E-31
   6.792000     -1.5666171E-30
   6.804000     -2.9345411E-30
   6.816000     -4.3781108E-30
   6.828000     -5.7677581E-30
   6.840000     -6.9440435E-30
   6.852000     -7.7261930E-30
   6.864000     -7.9251543E-30
   6.876000     -7.3610404E-30
   6.888000     -5.8842761E-30
   6.900000     -3.3992521E-30
   6.912000      1.1132660E-31
   6.924000      4.5637355E-30
   6.936000      9.7549638E-30
   6.948000      1.5351941E-29
   6.960000      2.0891337E-29
   6.972000      2.5792710E-29
   6.984000      2.9387148E-29
   6.996000      3.0962438E-29
   7.008000      2.9824476E-29
   7.020000      2.5372731E-29
   7.032000      1.7185732E-29
   7.044000      5.1103347E-30
   7.056000     -1.0653291E-29
   7.068000     -2.9480784E-29
   7.080000     -5.0277599E-29
   7.092000     -7.1468883E-29
   7.104000     -9.1035350E-29
   7.116000     -1.0660312E-28
   7.128000     -1.1559202E-28
   7.140000     -1.1542205E-28
   7.152000     -1.0377174E-28
   7.164000     -7.8875257E-29
   7.176000     -3.9838270E-29
   7.188000      1.3054773E-29
   7.200000      7.8074654E-29
   7.212000      1.5185956E-28
   7.224000      2.2934340E-28
   7.236000      3.0383574E-28
   7.248000      3.6728266E-28
   7.260000      4.1072642E-28
   7.272000      4.2496660E-28
   7.284000      4.0140593E-28
   7.296000      3.3304187E-28
   7.308000      2.1554043E-28
   7.320000      4.8306364E-29
   7.332000     -1.6455659E-28
   7.344000     -4.1351637E-28
   7.356000     -6.8324055E-28
   7.368000     -9.5270237E-28
   7.380000     -1.1958679E-27
   7.392000     -1.3830331E-27
   7.404000     -1.4828339E-27
   7.416000     -1.4648876E-27
   7.428000     -1.3029591E-27
   7.440000     -9.7846293E-28
   7.452000     -4.8404007E-28
   7.464000      1.7312058E-28
   7.476000      9.6859668E-28
   7.488000      1.8590880E-27
   7.500000      2.7822107E-27
   7.512000      3.6580763E-27
   7.524000      4.3929095E-27
   7.536000      4.8848205E-27
   7.548000      5.0316588E-27
   7.560000      4.7406627E-27
   7.572000      3.9393872E-27
   7.584000      2.5871460E-27
   7.596000      6.8598702E-28
   7.608000     -1.7099438E-27
   7.620000     -4.4879067E-27
   7.632000     -7.4741844E-27
   7.644000     -1.0436943E-26
   7.656000     -1.3095211E-26
   7.668000     -1.5134464E-26
   7.680000     -1.6228772E-26
   7.692000     -1.6068827E-26
   7.704000     -1.4394491E-26
   7.716000     -1.1029749E-26
   7.728000     -5.9172780E-27
   7.740000      8.5067392E-28
   7.752000      9.0088154E-27
   7.764000      1.8106512E-26
   7.776000      2.7510177E-26
   7.788000      3.6423215E-26
   7.800000      4.3925356E-26
   7.812000      4.9031724E-26
   7.824000      5.0770256E-26
   7.836000      4.8274066E-26
   7.848000      4.0883206E-26
   7.860000      2.8248308E-26
   7.872000      1.0426816E-26
   7.884000     -1.2038571E-26
   7.896000     -3.8070252E-26
   7.908000     -6.6045259E-26
   7.920000     -9.3832922E-26
   7.932000     -1.1888677E-25
   7.944000     -1.3839325E-25
   7.956000     -1.4947463E-25
   7.968000     -1.4943856E-25
   7.980000     -1.3605998E-25
   7.992000     -1.0787630E-25
   8.004000     -6.4471081E-26
   8.016000     -6.7178224E-27
   8.028000      6.3046195E-26
   8.040000      1.4094578E-25
   8.052000      2.2161933E-25
   8.064000      2.9841573E-25
   8.076000      3.6374635E-25
   8.088000      4.0959007E-25
   8.100000      4.2813350E-25
   8.112000      4.1251501E-25
   8.124000      3.5762240E-25
   8.136000      2.6088340E-25
   8.148000      1.2297424E-25
   8.160000     -5.1633242E-26
   8.172000     -2.5436564E-25
   8.184000     -4.7255588E-25
   8.196000     -6.8982287E-25
   8.208000     -8.8685547E-25
   8.220000     -1.0426050E-24
   8.232000     -1.1358515E-24
   8.244000     -1.1470697E-24
   8.256000     -1.0604796E-24
   8.268000     -8.6612894E-25
   8.280000     -5.6182319E-25
   8.292000     -1.5470271E-25
   8.304000      3.3774086E-25
   8.316000      8.8739920E-25
   8.328000      1.4561899E-24
   8.340000      1.9977084E-24
   8.352000      2.4599160E-24
   8.364000      2.7888014E-24
   8.376000      2.9328507E-24
   8.388000      2.8480644E-24
   8.400000      2.5031547E-24
   8.412000      1.8844889E-24
   8.424000      1.0002834E-24
   8.436000     -1.1646014E-25
   8.448000     -1.4067521E-24
   8.460000     -2.7865516E-24
   8.472000     -4.1501148E-24
   8.484000     -5.3758524E-24
   8.496000     -6.3345870E-24
   8.508000     -6.8998516E-24
   8.520000     -6.9596315E-24
   8.532000     -6.4287202E-24
   8.544000     -5.2606531E-24
   8.556000     -3.4580767E-24
   8.568000     -1.0803321E-24
   8.580000      1.7528813E-24
   8.592000      4.8627398E-24
   8.604000      8.0181061E-24
   8.616000      1.0948186E-23
   8.628000      1.3360813E-23
   8.640000      1.4965575E-23
   8.652000      1.5500426E-23
   8.664000      1.4759886E-23
   8.676000      1.2622447E-23
   8.688000      9.0745478E-24
   8.700000      4.2283264E-24
   8.712000     -1.6695081E-24
   8.724000     -8.2398896E-24
   8.736000     -1.4986281E-23
   8.748000     -2.1322820E-23
   8.760000     -2.6615217E-23
   8.772000     -3.0232533E-23
   8.784000     -3.1606728E-23
   8.796000     -3.0295544E-23
   8.808000     -2.6043287E-23
   8.820000     -1.8833401E-23
   8.832000     -8.9265023E-24
   8.844000      3.1221204E-24
   8.856000      1.6470496E-23
   8.868000      3.0026832E-23
   8.880000      4.2516346E-23
   8.892000      5.2576541E-23
   8.904000      5.8876280E-23
   8.916000      6.0251082E-23
   8.928000      5.5844101E-23
   8.940000      4.5240050E-23
   8.952000      2.8577685E-23
   8.964000      6.6263788E-24
   8.976000     -1.9186902E-23
   8.988000     -4.6811281E-23
   9.000000     -7.3673373E-23
   9.012000     -9.6848106E-23
   9.024000     -1.1329416E-22
   9.036000     -1.2014206E-22
   9.048000     -1.1501578E-22
   9.060000     -9.6361947E-23
   9.072000     -6.3755530E-23
   9.084000     -1.8147627E-23
   9.096000      3.7979620E-23
   9.108000      1.0058303E-22
   9.120000      1.6417904E-22
   9.132000      2.2213079E-22
   9.144000      2.6710396E-22
   9.156000      2.9167787E-22
   9.168000      2.8908082E-22
   9.180000      2.5400074E-22
   9.192000      1.8340646E-22
   9.204000      7.7301073E-23
   9.216000     -6.0678146E-23
   9.228000     -2.2290082E-22
   9.240000     -3.9770583E-22
   9.252000     -5.6974978E-22
   9.264000     -7.2078143E-22
   9.276000     -8.3085017E-22
   9.288000     -8.7991469E-22
   9.300000     -8.4977743E-22
   9.312000     -7.2622156E-22
   9.324000     -5.0118971E-22
   9.336000     -1.7480640E-22
   9.348000      2.4297570E-22
   9.360000      7.3133066E-22
   9.372000      1.2583287E-21
   9.384000      1.7816968E-21
   9.396000      2.2506902E-21
   9.408000      2.6091159E-21
   9.420000      2.7994502E-21
   9.432000      2.7678826E-21
   9.444000      2.4700067E-21
   9.456000      1.8767642E-21
   9.468000      9.8015208E-22
   9.480000     -2.0185805E-22
   9.492000     -1.6217831E-21
   9.504000     -3.2010464E-21
   9.516000     -4.8308572E-21
   9.528000     -6.3759376E-21
   9.540000     -7.6812961E-21
   9.552000     -8.5820255E-21
   9.564000     -8.9158325E-21
   9.576000     -8.5377011E-21
   9.588000     -7.3358400E-21
   9.600000     -5.2477412E-21
   9.612000     -2.2750205E-21
   9.624000      1.5044729E-21
   9.636000      5.9287972E-21
   9.648000      1.0749748E-20
   9.660000      1.5637593E-20
   9.672000      2.0193532E-20
   9.684000      2.3970261E-20
   9.696000      2.6500314E-20
   9.708000      2.7331240E-20
   9.720000      2.6065881E-20
   9.732000      2.2405352E-20
   9.744000      1.6191584E-20
   9.756000      7.4459616E-21
   9.768000     -3.5998698E-21
   9.780000     -1.6484853E-20
   9.792000     -3.0514586E-20
   9.804000     -4.4775542E-20
   9.816000     -5.8169422E-20
   9.828000     -6.9468205E-20
   9.840000     -7.7389157E-20
   9.852000     -8.0687010E-20
   9.864000     -7.8258983E-20
   9.876000     -6.9256401E-20
   9.888000     -5.3195281E-20
   9.900000     -3.0056968E-20
   9.912000     -3.6930610E-22
   9.924000      3.4741085E-20
   9.936000      7.3534308E-20
   9.948000      1.1368759E-19
   9.960000      1.5237554E-19
   9.972000      1.8640197E-19
   9.984000      2.1238167E-19
   9.996000      2.2696575E-19
   10.00800      2.2710060E-19
   10.02000      2.1030626E-19
   10.03200      1.7495574E-19
   10.04400      1.2053481E-19
   10.05600      4.7859730E-20
   10.06800     -4.0769829E-20
   10.08000     -1.4150398E-19
   10.09200     -2.4897989E-19
   10.10400     -3.5647586E-19
   10.11600     -4.5618907E-19
   10.12800     -5.3963412E-19
   10.14000     -5.9815188E-19
   10.15200     -6.2350822E-19
   10.16400     -6.0855156E-19
   10.17600     -5.4789058E-19
   10.18800     -4.3854784E-19
   10.20000     -2.8053629E-19
   10.21200     -7.7309269E-20
   10.22400      1.6396754E-19
   10.23600      4.3236622E-19
   10.24800      7.1340342E-19
   10.26000      9.8952556E-19
   10.27200      1.2408768E-18
   10.28400      1.4463369E-18
   10.29600      1.5847920E-18
   10.30800      1.6365849E-18
   10.32000      1.5850686E-18
   10.33200      1.4181705E-18
   10.34400      1.1298639E-18
   10.35600      7.2143307E-19
   10.36800      2.0242029E-19
   10.38000     -4.0885123E-19
   10.39200     -1.0852694E-18
   10.40400     -1.7915084E-18
   10.41600     -2.4852232E-18
   10.42800     -3.1188688E-18
   10.44000     -3.6421015E-18
   10.45200     -4.0046841E-18
   10.46400     -4.1597672E-18
   10.47600     -4.0673885E-18
   10.48800     -3.6979850E-18
   10.50000     -3.0357026E-18
   10.51200     -2.0812646E-18
   10.52400     -8.5416004E-19
   10.53600      6.0606805E-19
   10.54800      2.2396291E-18
   10.56000      3.9675342E-18
   10.57200      5.6939780E-18
   10.58400      7.3100722E-18
   10.59600      8.6988704E-18
   10.60800      9.7415340E-18
   10.62000      1.0324413E-17
   10.63200      1.0346722E-17
   10.64400      9.7284265E-18
   10.65600      8.4178937E-18
   10.66800      6.3988190E-18
   10.68000      3.6959360E-18
   10.69200      3.7900759E-19
   10.70400     -3.4353411E-18
   10.71600     -7.5843347E-18
   10.72800     -1.1862581E-17
   10.74000     -1.6028590E-17
   10.75200     -1.9814266E-17
   10.76400     -2.2937237E-17
   10.77600     -2.5115640E-17
   10.78800     -2.6084873E-17
   10.80000     -2.5615582E-17
   10.81200     -2.3532036E-17
   10.82400     -1.9729877E-17
   10.83600     -1.4192169E-17
   10.84800     -7.0025479E-18
   10.86000      1.6455993E-18
   10.87200      1.1445070E-17
   10.88400      2.1976798E-17
   10.89600      3.2718570E-17
   10.90800      4.3060958E-17
   10.92000      5.2330582E-17
   10.93200      5.9820451E-17
   10.94400      6.4826608E-17
   10.95600      6.6689882E-17
   10.96800      6.4841199E-17
   10.98000      5.8848190E-17
   10.99200      4.8460674E-17
   11.00400      3.3652209E-17
   11.01600      1.4654634E-17
   11.02800     -8.0174117E-18
   11.04000     -3.3555015E-17
   11.05200     -6.0859172E-17
   11.06400     -8.8562774E-17
   11.07600     -1.1507187E-16
   11.08800     -1.3862660E-16
   11.10000     -1.5738130E-16
   11.11200     -1.6950188E-16
   11.12400     -1.7327721E-16
   11.13600     -1.6724024E-16
   11.14800     -1.5029268E-16
   11.16000     -1.2182658E-16
   11.17200     -8.1834718E-17
   11.18400     -3.1001571E-17
   11.19600      2.9233880E-17
   11.20800      9.6651502E-17
   11.22000      1.6826675E-16
   11.23200      2.4039653E-16
   11.24400      3.0877752E-16
   11.25600      3.6873777E-16
   11.26800      4.1541929E-16
   11.28000      4.4404514E-16
   11.29200      4.5022220E-16
   11.30400      4.3026553E-16
   11.31600      3.8152773E-16
   11.32800      3.0271414E-16
   11.34000      1.9416163E-16
   11.35200      5.8058768E-17
   11.36400     -1.0141543E-16
   11.37600     -2.7805418E-16
   11.38800     -4.6370496E-16
   11.40000     -6.4848302E-16
   11.41200     -8.2112226E-16
   11.42400     -9.6946224E-16
   11.43600     -1.0810607E-15
   11.44800     -1.1439115E-15
   11.46000     -1.1472386E-15
   11.47200     -1.0823290E-15