 -0.1200000      0.0000000E+00
 -0.1080000      0.0000000E+00
 -9.6000001E-02  0.0000000E+00
 -8.3999999E-02  0.0000000E+00
 -7.1999997E-02  0.0000000E+00
 -5.9999999E-02  0.0000000E+00
 -4.8000000E-02  0.0000000E+00
 -3.5999998E-02  0.0000000E+00
 -2.4000000E-02  0.0000000E+00
 -1.2000000E-02  0.0000000E+00
  6.9388939E-18  0.0000000E+00
  1.2000000E-02  0.0000000E+00
  2.4000000E-02  0.0000000E+00
  3.5999998E-02  0.0000000E+00
  4.8000000E-02  0.0000000E+00
  5.9999999E-02  0.0000000E+00
  7.1999997E-02  0.0000000E+00
  8.3999999E-02  0.0000000E+00
  9.6000001E-02  0.0000000E+00
  0.1080000      0.0000000E+00
  0.1200000      0.0000000E+00
  0.1320000      0.0000000E+00
  0.1440000      0.0000000E+00
  0.1560000      0.0000000E+00
  0.1680000      0.0000000E+00
  0.1800000      0.0000000E+00
  0.1920000      0.0000000E+00
  0.2040000      0.0000000E+00
  0.2160000      0.0000000E+00
  0.2280000      0.0000000E+00
  0.2400000      0.0000000E+00
  0.2520000      0.0000000E+00
  0.2640000      0.0000000E+00
  0.2760000      0.0000000E+00
  0.2880000      0.0000000E+00
  0.3000000      0.0000000E+00
  0.3120000      0.0000000E+00
  0.3240000      0.0000000E+00
  0.3360000      0.0000000E+00
  0.3480000      0.0000000E+00
  0.3600000      0.0000000E+00
  0.3720000      0.0000000E+00
  0.3840000      0.0000000E+00
  0.3960000      0.0000000E+00
  0.4080000      0.0000000E+00
  0.4200000      0.0000000E+00
  0.4320000      0.0000000E+00
  0.4440000      0.0000000E+00
  0.4560000      0.0000000E+00
  0.4680000      0.0000000E+00
  0.4800000      0.0000000E+00
  0.4920000      0.0000000E+00
  0.5040000      0.0000000E+00
  0.5160000      0.0000000E+00
  0.5280000      0.0000000E+00
  0.5400000      0.0000000E+00
  0.5520000      0.0000000E+00
  0.5640000      0.0000000E+00
  0.5760000      0.0000000E+00
  0.5880000      0.0000000E+00
  0.6000000      0.0000000E+00
  0.6120000      0.0000000E+00
  0.6240000      0.0000000E+00
  0.6360000      0.0000000E+00
  0.6480000      0.0000000E+00
  0.6600000      0.0000000E+00
  0.6720000      0.0000000E+00
  0.6840000      0.0000000E+00
  0.6960000      0.0000000E+00
  0.7080000      0.0000000E+00
  0.7200000      0.0000000E+00
  0.7320000      0.0000000E+00
  0.7440000      0.0000000E+00
  0.7560000      0.0000000E+00
  0.7680000      0.0000000E+00
  0.7800000      0.0000000E+00
  0.7920000      0.0000000E+00
  0.8040000      0.0000000E+00
  0.8160000      0.0000000E+00
  0.8280000      0.0000000E+00
  0.8400000      0.0000000E+00
  0.8520000      0.0000000E+00
  0.8640000      0.0000000E+00
  0.8760000      0.0000000E+00
  0.8880000      0.0000000E+00
  0.9000000      0.0000000E+00
  0.9120000      0.0000000E+00
  0.9240000      0.0000000E+00
  0.9360000      0.0000000E+00
  0.9480000      0.0000000E+00
  0.9600000      0.0000000E+00
  0.9720000      0.0000000E+00
  0.9840000      0.0000000E+00
  0.9960000      0.0000000E+00
   1.008000      0.0000000E+00
   1.020000      0.0000000E+00
   1.032000      0.0000000E+00
   1.044000      0.0000000E+00
   1.056000      0.0000000E+00
   1.068000      0.0000000E+00
   1.080000      0.0000000E+00
   1.092000      0.0000000E+00
   1.104000      0.0000000E+00
   1.116000      0.0000000E+00
   1.128000      0.0000000E+00
   1.140000      0.0000000E+00
   1.152000      0.0000000E+00
   1.164000      0.0000000E+00
   1.176000      0.0000000E+00
   1.188000      0.0000000E+00
   1.200000      0.0000000E+00
   1.212000      0.0000000E+00
   1.224000      0.0000000E+00
   1.236000      0.0000000E+00
   1.248000      0.0000000E+00
   1.260000      0.0000000E+00
   1.272000      0.0000000E+00
   1.284000      0.0000000E+00
   1.296000      0.0000000E+00
   1.308000      0.0000000E+00
   1.320000      0.0000000E+00
   1.332000      0.0000000E+00
   1.344000      0.0000000E+00
   1.356000      0.0000000E+00
   1.368000      0.0000000E+00
   1.380000      0.0000000E+00
   1.392000      0.0000000E+00
   1.404000      0.0000000E+00
   1.416000      0.0000000E+00
   1.428000      0.0000000E+00
   1.440000      0.0000000E+00
   1.452000      0.0000000E+00
   1.464000      0.0000000E+00
   1.476000      0.0000000E+00
   1.488000      0.0000000E+00
   1.500000      0.0000000E+00
   1.512000      0.0000000E+00
   1.524000      0.0000000E+00
   1.536000      0.0000000E+00
   1.548000      0.0000000E+00
   1.560000      0.0000000E+00
   1.572000      0.0000000E+00
   1.584000      0.0000000E+00
   1.596000      0.0000000E+00
   1.608000      0.0000000E+00
   1.620000      0.0000000E+00
   1.632000      0.0000000E+00
   1.644000      0.0000000E+00
   1.656000      0.0000000E+00
   1.668000      0.0000000E+00
   1.680000      0.0000000E+00
   1.692000      0.0000000E+00
   1.704000      0.0000000E+00
   1.716000      0.0000000E+00
   1.728000      0.0000000E+00
   1.740000      0.0000000E+00
   1.752000      0.0000000E+00
   1.764000      0.0000000E+00
   1.776000      0.0000000E+00
   1.788000      0.0000000E+00
   1.800000      0.0000000E+00
   1.812000      0.0000000E+00
   1.824000      0.0000000E+00
   1.836000      0.0000000E+00
   1.848000      0.0000000E+00
   1.860000      0.0000000E+00
   1.872000      0.0000000E+00
   1.884000      0.0000000E+00
   1.896000      0.0000000E+00
   1.908000      0.0000000E+00
   1.920000      0.0000000E+00
   1.932000      0.0000000E+00
   1.944000      0.0000000E+00
   1.956000      0.0000000E+00
   1.968000      0.0000000E+00
   1.980000      0.0000000E+00
   1.992000      0.0000000E+00
   2.004000      0.0000000E+00
   2.016000      0.0000000E+00
   2.028000      0.0000000E+00
   2.040000      0.0000000E+00
   2.052000      0.0000000E+00
   2.064000      0.0000000E+00
   2.076000      0.0000000E+00
   2.088000      0.0000000E+00
   2.100000      0.0000000E+00
   2.112000      0.0000000E+00
   2.124000      0.0000000E+00
   2.136000      0.0000000E+00
   2.148000      0.0000000E+00
   2.160000      0.0000000E+00
   2.172000      0.0000000E+00
   2.184000      0.0000000E+00
   2.196000      0.0000000E+00
   2.208000      0.0000000E+00
   2.220000      0.0000000E+00
   2.232000      0.0000000E+00
   2.244000      0.0000000E+00
   2.256000      0.0000000E+00
   2.268000      0.0000000E+00
   2.280000      0.0000000E+00
   2.292000      0.0000000E+00
   2.304000      0.0000000E+00
   2.316000      0.0000000E+00
   2.328000      0.0000000E+00
   2.340000      0.0000000E+00
   2.352000      0.0000000E+00
   2.364000      0.0000000E+00
   2.376000      0.0000000E+00
   2.388000      0.0000000E+00
   2.400000      0.0000000E+00
   2.412000      0.0000000E+00
   2.424000      0.0000000E+00
   2.436000      0.0000000E+00
   2.448000      0.0000000E+00
   2.460000      0.0000000E+00
   2.472000      0.0000000E+00
   2.484000      0.0000000E+00
   2.496000      0.0000000E+00
   2.508000      0.0000000E+00
   2.520000      0.0000000E+00
   2.532000      0.0000000E+00
   2.544000      0.0000000E+00
   2.556000      0.0000000E+00
   2.568000      0.0000000E+00
   2.580000      0.0000000E+00
   2.592000      0.0000000E+00
   2.604000      0.0000000E+00
   2.616000      0.0000000E+00
   2.628000      0.0000000E+00
   2.640000      0.0000000E+00
   2.652000      0.0000000E+00
   2.664000      0.0000000E+00
   2.676000      0.0000000E+00
   2.688000      0.0000000E+00
   2.700000      0.0000000E+00
   2.712000      0.0000000E+00
   2.724000      0.0000000E+00
   2.736000      0.0000000E+00
   2.748000      0.0000000E+00
   2.760000      0.0000000E+00
   2.772000      0.0000000E+00
   2.784000      0.0000000E+00
   2.796000      0.0000000E+00
   2.808000      0.0000000E+00
   2.820000      0.0000000E+00
   2.832000      0.0000000E+00
   2.844000      0.0000000E+00
   2.856000      0.0000000E+00
   2.868000      0.0000000E+00
   2.880000      0.0000000E+00
   2.892000      0.0000000E+00
   2.904000      0.0000000E+00
   2.916000      0.0000000E+00
   2.928000      0.0000000E+00
   2.940000      0.0000000E+00
   2.952000      0.0000000E+00
   2.964000      0.0000000E+00
   2.976000      0.0000000E+00
   2.988000      0.0000000E+00
   3.000000      0.0000000E+00
   3.012000      0.0000000E+00
   3.024000      0.0000000E+00
   3.036000      0.0000000E+00
   3.048000      0.0000000E+00
   3.060000      0.0000000E+00
   3.072000      0.0000000E+00
   3.084000      0.0000000E+00
   3.096000      0.0000000E+00
   3.108000      0.0000000E+00
   3.120000      0.0000000E+00
   3.132000      0.0000000E+00
   3.144000      0.0000000E+00
   3.156000      0.0000000E+00
   3.168000      0.0000000E+00
   3.180000      0.0000000E+00
   3.192000      0.0000000E+00
   3.204000      0.0000000E+00
   3.216000      0.0000000E+00
   3.228000      0.0000000E+00
   3.240000      0.0000000E+00
   3.252000      0.0000000E+00
   3.264000      0.0000000E+00
   3.276000      0.0000000E+00
   3.288000      0.0000000E+00
   3.300000      0.0000000E+00
   3.312000      0.0000000E+00
   3.324000      0.0000000E+00
   3.336000      0.0000000E+00
   3.348000      0.0000000E+00
   3.360000      0.0000000E+00
   3.372000      0.0000000E+00
   3.384000      0.0000000E+00
   3.396000      0.0000000E+00
   3.408000      0.0000000E+00
   3.420000      0.0000000E+00
   3.432000      0.0000000E+00
   3.444000      0.0000000E+00
   3.456000      0.0000000E+00
   3.468000      0.0000000E+00
   3.480000      0.0000000E+00
   3.492000      0.0000000E+00
   3.504000      0.0000000E+00
   3.516000      0.0000000E+00
   3.528000      0.0000000E+00
   3.540000      0.0000000E+00
   3.552000      0.0000000E+00
   3.564000      0.0000000E+00
   3.576000      0.0000000E+00
   3.588000      0.0000000E+00
   3.600000      0.0000000E+00
   3.612000      0.0000000E+00
   3.624000      0.0000000E+00
   3.636000      0.0000000E+00
   3.648000      0.0000000E+00
   3.660000      0.0000000E+00
   3.672000      0.0000000E+00
   3.684000      0.0000000E+00
   3.696000      0.0000000E+00
   3.708000      0.0000000E+00
   3.720000      0.0000000E+00
   3.732000      0.0000000E+00
   3.744000      0.0000000E+00
   3.756000      0.0000000E+00
   3.768000      0.0000000E+00
   3.780000      0.0000000E+00
   3.792000      0.0000000E+00
   3.804000      0.0000000E+00
   3.816000      0.0000000E+00
   3.828000      0.0000000E+00
   3.840000      0.0000000E+00
   3.852000      0.0000000E+00
   3.864000      0.0000000E+00
   3.876000      0.0000000E+00
   3.888000      0.0000000E+00
   3.900000      0.0000000E+00
   3.912000      0.0000000E+00
   3.924000      0.0000000E+00
   3.936000      0.0000000E+00
   3.948000      0.0000000E+00
   3.960000      0.0000000E+00
   3.972000      0.0000000E+00
   3.984000      0.0000000E+00
   3.996000      0.0000000E+00
   4.008000      0.0000000E+00
   4.020000     -1.3305361E-38
   4.032000     -1.2185994E-38
   4.044000      0.0000000E+00
   4.056000      0.0000000E+00
   4.068000      0.0000000E+00
   4.080000      2.5332225E-38
   4.092000      5.3090008E-38
   4.104000      9.1839369E-38
   4.116000      1.3648041E-37
   4.128000      1.2717824E-37
   4.140000      3.3778367E-38
   4.152000     -1.4783125E-37
   4.164000     -3.9305135E-37
   4.176000     -5.8931264E-37
   4.188000     -6.7693657E-37
   4.200000     -5.8645673E-37
   4.212000     -2.9552961E-37
   4.224000      1.9330426E-37
   4.236000      8.7542312E-37
   4.248000      1.6135506E-36
   4.260000      2.2141965E-36
   4.272000      2.4331942E-36
   4.284000      2.0491764E-36
   4.296000      8.7178172E-37
   4.308000     -9.5394588E-37
   4.320000     -3.3146734E-36
   4.332000     -5.7346328E-36
   4.344000     -7.7913572E-36
   4.356000     -8.7921144E-36
   4.368000     -8.0240074E-36
   4.380000     -4.8061006E-36
   4.392000      1.3756686E-36
   4.404000      1.0604271E-35
   4.416000      2.2485201E-35
   4.428000      3.5909168E-35
   4.440000      4.9225709E-35
   4.452000      6.0192583E-35
   4.464000      6.6137250E-35
   4.476000      6.4190136E-35
   4.488000      5.1573219E-35
   4.500000      2.6096224E-35
   4.512000     -1.3445902E-35
   4.524000     -6.6702509E-35
   4.536000     -1.3128345E-34
   4.548000     -2.0228616E-34
   4.560000     -2.7219201E-34
   4.572000     -3.3100080E-34
   4.584000     -3.6652795E-34
   4.596000     -3.6553294E-34
   4.608000     -3.1506805E-34
   4.620000     -2.0428232E-34
   4.632000     -2.6469581E-35
   4.644000      2.1870603E-34
   4.656000      5.2307056E-34
   4.668000      8.6814951E-34
   4.680000      1.2240841E-33
   4.692000      1.5495605E-33
   4.704000      1.7930916E-33
   4.716000      1.8960783E-33
   4.728000      1.7977287E-33
   4.740000      1.4419409E-33
   4.752000      7.8585489E-34
   4.764000     -1.9044061E-34
   4.776000     -1.4738878E-33
   4.788000     -3.0093004E-33
   4.800000     -4.6924247E-33
   4.812000     -6.3668866E-33
   4.824000     -7.8264407E-33
   4.836000     -8.8240805E-33
   4.848000     -9.0889943E-33
   4.860000     -8.3517441E-33
   4.872000     -6.3771920E-33
   4.884000     -3.0035730E-33
   4.896000      1.8151032E-33
   4.908000      7.9674155E-33
   4.920000      1.5148893E-32
   4.932000      2.2838456E-32
   4.944000      3.0293377E-32
   4.956000      3.6568903E-32
   4.968000      4.0567574E-32
   4.980000      4.1121240E-32
   4.992000      3.7105819E-32
   5.004000      2.7585009E-32
   5.016000      1.1974674E-32
   5.028000     -9.7850618E-33
   5.040000     -3.7067727E-32
   5.052000     -6.8429934E-32
   5.064000     -1.0153640E-31
   5.076000     -1.3316498E-31
   5.088000     -1.5931413E-31
   5.100000     -1.7542935E-31
   5.112000     -1.7675713E-31
   5.124000     -1.5882172E-31
   5.136000     -1.1800623E-31
   5.148000     -5.2201200E-32
   5.160000      3.8532637E-32
   5.172000      1.5135793E-31
   5.184000      2.8019377E-31
   5.196000      4.1547853E-31
   5.208000      5.4425200E-31
   5.220000      6.5063561E-31
   5.232000      7.1676506E-31
   5.244000      7.2419743E-31
   5.256000      6.5576457E-31
   5.268000      4.9779200E-31
   5.280000      2.4253618E-31
   5.292000     -1.0936597E-31
   5.304000     -5.4670122E-31
   5.316000     -1.0460446E-30
   5.328000     -1.5710115E-30
   5.340000     -2.0727150E-30
   5.352000     -2.4916939E-30
   5.364000     -2.7614941E-30
   5.376000     -2.8139422E-30
   5.388000     -2.5859866E-30
   5.400000     -2.0277695E-30
   5.412000     -1.1113764E-30
   5.424000      1.6051536E-31
   5.436000      1.7470477E-30
   5.448000      3.5637532E-30
   5.460000      5.4804232E-30
   5.472000      7.3233433E-30
   5.484000      8.8827553E-30
   5.496000      9.9260511E-30
   5.508000      1.0216702E-29
   5.520000      9.5382959E-30
   5.532000      7.7223569E-30
   5.544000      4.6778423E-30
   5.556000      4.1954484E-31
   5.568000     -4.9079567E-30
   5.580000     -1.1014497E-29
   5.592000     -1.7460357E-29
   5.604000     -2.3667427E-29
   5.616000     -2.8947886E-29
   5.628000     -3.2551442E-29
   5.640000     -3.3730340E-29
   5.652000     -3.1819152E-29
   5.664000     -2.6324017E-29
   5.676000     -1.7013658E-29
   5.688000     -4.0024654E-30
   5.700000      1.2185417E-29
   5.712000      3.0582531E-29
   5.724000      4.9785798E-29
   5.736000      6.8013987E-29
   5.748000      8.3219722E-29
   5.760000      9.3255526E-29
   5.772000      9.6087185E-29
   5.784000      9.0040330E-29
   5.796000      7.4059271E-29
   5.808000      4.7950416E-29
   5.820000      1.2578450E-29
   5.832000     -3.0018841E-29
   5.844000     -7.6628780E-29
   5.856000     -1.2300089E-28
   5.868000     -1.6413769E-28
   5.880000     -1.9473840E-28
   5.892000     -2.0977612E-28
   5.904000     -2.0516727E-28
   5.916000     -1.7847075E-28
   5.928000     -1.2953514E-28
   5.940000     -6.0998366E-29
   5.952000      2.1460728E-29
   5.964000      1.0921299E-28
   5.976000      1.9118577E-28
   5.988000      2.5482521E-28
   6.000000      2.8750354E-28
   6.012000      2.7830044E-28
   6.024000      2.2001949E-28
   6.036000      1.1123326E-28
   6.048000     -4.1910818E-29
   6.060000     -2.2443223E-28
   6.072000     -4.1213110E-28
   6.084000     -5.7237545E-28
   6.096000     -6.6629602E-28
   6.108000     -6.5250646E-28
   6.120000     -4.9230852E-28
   6.132000     -1.5613098E-28
   6.144000      3.6927143E-28
   6.156000      1.0735728E-27
   6.168000      1.9165077E-27
   6.180000      2.8234668E-27
   6.192000      3.6842042E-27
   6.204000      4.3557671E-27
   6.216000      4.6705481E-27
   6.228000      4.4500037E-27
   6.240000      3.5240435E-27
   6.252000      1.7554283E-27
   6.264000     -9.3230426E-28
   6.276000     -4.5256942E-27
   6.288000     -8.8941240E-27
   6.300000     -1.3768285E-26
   6.312000     -1.8728578E-26
   6.324000     -2.3207681E-26
   6.336000     -2.6511162E-26
   6.348000     -2.7858943E-26
   6.360000     -2.6448978E-26
   6.372000     -2.1542203E-26
   6.384000     -1.2565402E-26
   6.396000      7.7452409E-28
   6.408000      1.8374267E-26
   6.420000      3.9628079E-26
   6.432000      6.3346437E-26
   6.444000      8.7715139E-26
   6.456000      1.1031034E-25
   6.468000      1.2818335E-25
   6.480000      1.3802500E-25
   6.492000      1.3641381E-25
   6.504000      1.2014448E-25
   6.516000      8.6623442E-26
   6.528000      3.4308408E-26
   6.540000     -3.6842081E-26
   6.552000     -1.2495276E-25
   6.564000     -2.2590099E-25
   6.576000     -3.3312699E-25
   6.588000     -4.3764070E-25
   6.600000     -5.2827530E-25
   6.612000     -5.9222441E-25
   6.624000     -6.1588220E-25
   6.636000     -5.8597870E-25
   6.648000     -4.9097288E-25
   6.660000     -3.2263067E-25
   6.672000     -7.7679257E-26
   6.684000      2.4060442E-25
   6.696000      6.2104120E-25
   6.708000      1.0436221E-24
   6.720000      1.4791972E-24
   6.732000      1.8899618E-24
   6.744000      2.2308823E-24
   6.756000      2.4521560E-24
   6.768000      2.5027155E-24
   6.780000      2.3346966E-24
   6.792000      1.9086825E-24
   6.804000      1.1994102E-24
   6.816000      2.0152373E-25
   6.828000     -1.0651492E-24
   6.840000     -2.5513963E-24
   6.852000     -4.1761275E-24
   6.864000     -5.8262064E-24
   6.876000     -7.3591548E-24
   6.888000     -8.6091420E-24
   6.900000     -9.3964496E-24
   6.912000     -9.5403513E-24
   6.924000     -8.8750220E-24
   6.936000     -7.2677179E-24
   6.948000     -4.6381274E-24
   6.960000     -9.7742213E-25
   6.972000      3.6347259E-24
   6.984000      9.0171219E-24
   6.996000      1.4880028E-23
   7.008000      2.0826067E-23
   7.020000      2.6360683E-23
   7.032000      3.0913342E-23
   7.044000      3.3869891E-23
   7.056000      3.4615750E-23
   7.068000      3.2588466E-23
   7.080000      2.7337189E-23
   7.092000      1.8585361E-23
   7.104000      6.2920583E-24
   7.116000     -9.2935672E-24
   7.128000     -2.7590801E-23
   7.140000     -4.7665008E-23
   7.152000     -6.8230265E-23
   7.164000     -8.7681997E-23
   7.176000     -1.0416306E-22
   7.188000     -1.1566458E-22
   7.200000     -1.2016053E-22
   7.212000     -1.1577147E-22
   7.224000     -1.0095024E-22
   7.236000     -7.4678414E-23
   7.248000     -3.6659815E-23
   7.260000      1.2505563E-23
   7.272000      7.1185249E-23
   7.284000      1.3663439E-22
   7.296000      2.0498997E-22
   7.308000      2.7135437E-22
   7.320000      3.2997951E-22
   7.332000      3.7455651E-22
   7.344000      3.9860834E-22
   7.356000      3.9597437E-22
   7.368000      3.6136625E-22
   7.380000      2.9096434E-22
   7.392000      1.8301500E-22
   7.404000      3.8382037E-23
   7.416000     -1.3900119E-22
   7.428000     -3.4183355E-22
   7.440000     -5.5935524E-22
   7.452000     -7.7751115E-22
   7.464000     -9.7940517E-22
   7.476000     -1.1460637E-21
   7.488000     -1.2575111E-21
   7.500000     -1.2941282E-21
   7.512000     -1.2382452E-21
   7.524000     -1.0758871E-21
   7.536000     -7.9856740E-22
   7.548000     -4.0499723E-22
   7.560000      9.7434804E-23
   7.572000      6.9157141E-22
   7.584000      1.3499387E-21
   7.596000      2.0348859E-21
   7.608000      2.6995296E-21
   7.620000      3.2895769E-21
   7.632000      3.7460546E-21
   7.644000      4.0088973E-21
   7.656000      4.0212868E-21
   7.668000      3.7345423E-21
   7.680000      3.1133010E-21
   7.692000      2.1406441E-21
   7.704000      8.2277824E-22
   7.716000     -8.0716470E-22
   7.728000     -2.6866477E-21
   7.740000     -4.7229941E-21
   7.752000     -6.7947645E-21
   7.764000     -8.7555178E-21
   7.776000     -1.0440101E-20
   7.788000     -1.1673451E-20
   7.800000     -1.2281695E-20
   7.812000     -1.2105142E-20
   7.824000     -1.1012545E-20
   7.836000     -8.9157905E-21
   7.848000     -5.7840358E-21
   7.860000     -1.6561608E-21
   7.872000      3.3496784E-21
   7.884000      9.0305731E-21
   7.896000      1.5098573E-20
   7.908000      2.1186480E-20
   7.920000      2.6860387E-20
   7.932000      3.1639145E-20
   7.944000      3.5020601E-20
   7.956000      3.6513862E-20
   7.968000      3.5676264E-20
   7.980000      3.2153257E-20
   7.992000      2.5718826E-20
   8.004000      1.6313716E-20
   8.016000      4.0783235E-21
   8.028000     -1.0622888E-20
   8.040000     -2.7188616E-20
   8.052000     -4.4782411E-20
   8.064000     -6.2351123E-20
   8.076000     -7.8661568E-20
   8.088000     -9.2355930E-20
   8.100000     -1.0202507E-19
   8.112000     -1.0629764E-19
   8.124000     -1.0394148E-19
   8.136000     -9.3972293E-20
   8.148000     -7.5763295E-20
   8.160000     -4.9148607E-20
   8.172000     -1.4512099E-20
   8.184000      2.7146533E-20
   8.196000      7.4176820E-20
   8.208000      1.2428108E-19
   8.220000      1.7456256E-19
   8.232000      2.2162203E-19
   8.244000      2.6170441E-19
   8.256000      2.9089349E-19
   8.268000      3.0534961E-19
   8.280000      3.0158121E-19
   8.292000      2.7673808E-19
   8.304000      2.2890952E-19
   8.316000      1.5740902E-19
   8.328000      6.3023977E-20
   8.340000     -5.1791510E-20
   8.352000     -1.8280301E-19
   8.364000     -3.2398165E-19
   8.376000     -4.6760654E-19
   8.388000     -6.0449615E-19
   8.400000     -7.2437432E-19
   8.412000     -8.1636921E-19
   8.424000     -8.6963328E-19
   8.436000     -8.7406469E-19
   8.448000     -8.2109913E-19
   8.460000     -7.0453051E-19
   8.472000     -5.2131399E-19
   8.484000     -2.7229372E-19
   8.496000      3.7203204E-20
   8.508000      3.9696801E-19
   8.520000      7.9176508E-19
   8.532000      1.2014914E-18
   8.544000      1.6016813E-18
   8.556000      1.9643796E-18
   8.568000      2.2593897E-18
   8.580000      2.4558746E-18
   8.592000      2.5242692E-18
   8.604000      2.4384271E-18
   8.616000      2.1779033E-18
   8.628000      1.7302479E-18
   8.640000      1.0931603E-18
   8.652000      2.7634168E-19
   8.664000     -6.9712461E-19
   8.676000     -1.7900356E-18
   8.688000     -2.9511285E-18
   8.700000     -4.1160693E-18
   8.712000     -5.2094586E-18
   8.724000     -6.1478958E-18
   8.736000     -6.8440808E-18
   8.748000     -7.2118561E-18
   8.760000     -7.1720149E-18
   8.772000     -6.6586352E-18
   8.784000     -5.6255937E-18
   8.796000     -4.0528885E-18
   8.808000     -1.9523003E-18
   8.820000      6.2806857E-19
   8.832000      3.6008760E-18
   8.844000      6.8386959E-18
   8.856000      1.0175651E-17
   8.868000      1.3411829E-17
   8.880000      1.6320651E-17
   8.892000      1.8659203E-17
   8.904000      2.0181334E-17
   8.916000      2.0653148E-17
   8.928000      1.9870218E-17
   8.940000      1.7675741E-17
   8.952000      1.3978543E-17
   8.964000      8.7697755E-18
   8.976000      2.1369545E-18
   8.988000     -5.7259713E-18
   9.000000     -1.4513857E-17
   9.012000     -2.3812058E-17
   9.024000     -3.3105535E-17
   9.036000     -4.1795951E-17
   9.048000     -4.9226964E-17
   9.060000     -5.4717313E-17
   9.072000     -5.7600894E-17
   9.084000     -5.7272206E-17
   9.096000     -5.3235144E-17
   9.108000     -4.5152454E-17
   9.120000     -3.2892754E-17
   9.132000     -1.6571652E-17
   9.144000      3.4166387E-18
   9.156000      2.6380694E-17
   9.168000      5.1329581E-17
   9.180000      7.6989524E-17
   9.192000      1.0184139E-16
   9.204000      1.2417982E-16
   9.216000      1.4219351E-16
   9.228000      1.5406469E-16
   9.240000      1.5808427E-16
   9.252000      1.5277773E-16
   9.264000      1.3703515E-16
   9.276000      1.1023771E-16
   9.288000      7.2372024E-17
   9.300000      2.4122853E-17
   9.312000     -3.3064583E-17
   9.324000     -9.6961536E-17
   9.336000     -1.6457916E-16
   9.348000     -2.3224383E-16
   9.360000     -2.9572715E-16
   9.372000     -3.5043039E-16
   9.384000     -3.9161994E-16
   9.396000     -4.1470548E-16
   9.408000     -4.1555023E-16
   9.420000     -3.9079755E-16
   9.432000     -3.3819577E-16
   9.444000     -2.5690059E-16
   9.456000     -1.4773225E-16
   9.468000     -1.3365020E-17
   9.480000      1.4157269E-16
   9.492000      3.1050656E-16
   9.504000      4.8504786E-16
   9.516000      6.5525706E-16
   9.528000      8.1004175E-16
   9.540000      9.3768241E-16
   9.552000      1.0264712E-15
   9.564000      1.0654384E-15
   9.576000      1.0451356E-15
   9.588000      9.5843080E-16
   9.600000      8.0127062E-16
   9.612000      5.7335602E-16
   9.624000      2.7867813E-16
   9.636000     -7.4138438E-17
   9.648000     -4.7173155E-16
   9.660000     -8.9617589E-16
   9.672000     -1.3254618E-15
   9.684000     -1.7342906E-15
   9.696000     -2.0951767E-15
   9.708000     -2.3798320E-15
   9.720000     -2.5607847E-15
   9.732000     -2.6131574E-15
   9.744000     -2.5165266E-15
   9.756000     -2.2567503E-15
   9.768000     -1.8276504E-15
   9.780000     -1.2324327E-15
   9.792000     -4.8471545E-16
   9.804000      3.9094025E-16
   9.816000      1.3590960E-15
   9.828000      2.3741713E-15
   9.840000      3.3818851E-15
   9.852000      4.3214084E-15
   9.864000      5.1281818E-15
   9.876000      5.7373201E-15
   9.888000      6.0874568E-15
   9.900000      6.1248597E-15
   9.912000      5.8076009E-15
   9.924000      5.1095361E-15
   9.936000      4.0238249E-15
   9.948000      2.5657284E-15
   9.960000      7.7442978E-16
   9.972000     -1.2863581E-15
   9.984000     -3.5291723E-15
   9.996000     -5.8450932E-15
   10.00800     -8.1075927E-15
   10.02000     -1.0177893E-14
   10.03200     -1.1911691E-14
   10.04400     -1.3167020E-14
   10.05600     -1.3812902E-14
   10.06800     -1.3738364E-14
   10.08000     -1.2861353E-14
   10.09200     -1.1136954E-14
   10.10400     -8.5644120E-15
   10.11600     -5.1923336E-15
   10.12800     -1.1216045E-15
   10.14000      3.4944497E-15
   10.15200      8.4529585E-15
   10.16400      1.3507648E-14
   10.17600      1.8378230E-14
   10.18800      2.2762853E-14
   10.20000      2.6353226E-14
   10.21200      2.8851823E-14
   10.22400      2.9990387E-14
   10.23600      2.9548826E-14
   10.24800      2.7373350E-14
   10.26000      2.3392817E-14
   10.27200      1.7632048E-14
   10.28400      1.0221033E-14
   10.29600      1.3990443E-15
   10.30800     -8.4871405E-15
   10.32000     -1.8991456E-14
   10.33200     -2.9583391E-14
   10.34400     -3.9669355E-14
   10.35600     -4.8619976E-14
   10.36800     -5.5802388E-14
   10.38000     -6.0616232E-14
   10.39200     -6.2531577E-14
   10.40400     -6.1126844E-14
   10.41600     -5.6124532E-14
   10.42800     -4.7422390E-14
   10.44000     -3.5117878E-14
   10.45200     -1.9523664E-14
   10.46400     -1.1724598E-15
   10.47600      1.9190292E-14
   10.48800      4.0626658E-14
   10.50000      6.2039559E-14
   10.51200      8.2218690E-14
   10.52400      9.9897650E-14
   10.53600      1.1382013E-13
   10.54800      1.2281231E-13
   10.56000      1.2585808E-13
   10.57200      1.2217274E-13
   10.58400      1.1127128E-13
   10.59600      9.3026342E-14
   10.60800      6.7711875E-14
   10.62000      3.6028265E-14
   10.63200     -8.9405492E-16
   10.64400     -4.1515158E-14
   10.65600     -8.3931411E-14
   10.66800     -1.2594645E-13
   10.68000     -1.6516579E-13
   10.69200     -1.9911220E-13
   10.70400     -2.2535705E-13
   10.71600     -2.4166210E-13
   10.72800     -2.4612449E-13
   10.74000     -2.3731711E-13
   10.75200     -2.1441602E-13
   10.76400     -1.7730618E-13
   10.77600     -1.2665791E-13
   10.78800     -6.3966227E-14
   10.80000      8.4522411E-15
   10.81200      8.7509020E-14
   10.82400      1.6944183E-13
   10.83600      2.4996010E-13
   10.84800      3.2443435E-13
   10.86000      3.8812310E-13
   10.87200      4.3642770E-13
   10.88400      4.6516415E-13
   10.89600      4.7083740E-13
   10.90800      4.5090391E-13
   10.92000      4.0400539E-13
   10.93200      3.3015881E-13
   10.94400      2.3088714E-13
   10.95600      1.0927834E-13
   10.96800     -3.0038201E-14
   10.98000     -1.8100365E-13
   10.99200     -3.3633261E-13
   11.00400     -4.8780402E-13
   11.01600     -6.2663221E-13
   11.02800     -7.4390412E-13
   11.04000     -8.3106563E-13
   11.05200     -8.8043293E-13
   11.06400     -8.8570340E-13
   11.07600     -8.4243729E-13
   11.08800     -7.4847967E-13
   11.10000     -6.0429401E-13
   11.11200     -4.1318015E-13
   11.12400     -1.8135451E-13
   11.13600      8.2126349E-14
   11.14800      3.6560753E-13
   11.16000      6.5524533E-13
   11.17200      9.3557670E-13
   11.18400      1.1902320E-12
   11.19600      1.4027628E-12
   11.20800      1.5575505E-12
   11.22000      1.6407508E-12
   11.23200      1.6412257E-12
   11.24400      1.5514070E-12
   11.25600      1.3680415E-12
   11.26800      1.0927595E-12
   11.28000      7.3242389E-13
   11.29200      2.9921809E-13
   11.30400     -1.8955471E-13
   11.31600     -7.1197524E-13
   11.32800     -1.2423137E-12
   11.34000     -1.7521182E-12
   11.35200     -2.2115521E-12
   11.36400     -2.5909227E-12
   11.37600     -2.8623391E-12
   11.38800     -3.0014110E-12
   11.40000     -2.9889038E-12
   11.41200     -2.8122465E-12
   11.42400     -2.4668032E-12
   11.43600     -1.9568104E-12
   11.44800     -1.2959047E-12
   11.46000     -5.0717210E-13
   11.47200      3.7731913E-13