 -0.1200000      0.0000000E+00
 -0.1080000      0.0000000E+00
 -9.6000001E-02  0.0000000E+00
 -8.3999999E-02  0.0000000E+00
 -7.1999997E-02  0.0000000E+00
 -5.9999999E-02  0.0000000E+00
 -4.8000000E-02  0.0000000E+00
 -3.5999998E-02  0.0000000E+00
 -2.4000000E-02  0.0000000E+00
 -1.2000000E-02  0.0000000E+00
  6.9388939E-18  0.0000000E+00
  1.2000000E-02  0.0000000E+00
  2.4000000E-02  0.0000000E+00
  3.5999998E-02  0.0000000E+00
  4.8000000E-02  0.0000000E+00
  5.9999999E-02  0.0000000E+00
  7.1999997E-02  0.0000000E+00
  8.3999999E-02  0.0000000E+00
  9.6000001E-02  0.0000000E+00
  0.1080000      0.0000000E+00
  0.1200000      0.0000000E+00
  0.1320000      0.0000000E+00
  0.1440000      0.0000000E+00
  0.1560000      0.0000000E+00
  0.1680000      0.0000000E+00
  0.1800000      0.0000000E+00
  0.1920000      0.0000000E+00
  0.2040000      0.0000000E+00
  0.2160000      0.0000000E+00
  0.2280000      0.0000000E+00
  0.2400000      0.0000000E+00
  0.2520000      0.0000000E+00
  0.2640000      0.0000000E+00
  0.2760000      0.0000000E+00
  0.2880000      0.0000000E+00
  0.3000000      0.0000000E+00
  0.3120000      0.0000000E+00
  0.3240000      0.0000000E+00
  0.3360000      0.0000000E+00
  0.3480000      0.0000000E+00
  0.3600000      0.0000000E+00
  0.3720000      0.0000000E+00
  0.3840000      0.0000000E+00
  0.3960000      0.0000000E+00
  0.4080000      0.0000000E+00
  0.4200000      0.0000000E+00
  0.4320000      0.0000000E+00
  0.4440000      0.0000000E+00
  0.4560000      0.0000000E+00
  0.4680000      0.0000000E+00
  0.4800000      0.0000000E+00
  0.4920000      0.0000000E+00
  0.5040000      0.0000000E+00
  0.5160000      0.0000000E+00
  0.5280000      0.0000000E+00
  0.5400000      0.0000000E+00
  0.5520000      0.0000000E+00
  0.5640000      0.0000000E+00
  0.5760000      0.0000000E+00
  0.5880000      0.0000000E+00
  0.6000000      0.0000000E+00
  0.6120000      0.0000000E+00
  0.6240000      0.0000000E+00
  0.6360000      0.0000000E+00
  0.6480000      0.0000000E+00
  0.6600000      0.0000000E+00
  0.6720000      0.0000000E+00
  0.6840000      0.0000000E+00
  0.6960000      0.0000000E+00
  0.7080000      0.0000000E+00
  0.7200000      0.0000000E+00
  0.7320000      0.0000000E+00
  0.7440000      0.0000000E+00
  0.7560000      0.0000000E+00
  0.7680000      0.0000000E+00
  0.7800000      0.0000000E+00
  0.7920000      0.0000000E+00
  0.8040000      0.0000000E+00
  0.8160000      0.0000000E+00
  0.8280000      0.0000000E+00
  0.8400000      0.0000000E+00
  0.8520000      0.0000000E+00
  0.8640000      0.0000000E+00
  0.8760000      0.0000000E+00
  0.8880000      0.0000000E+00
  0.9000000      0.0000000E+00
  0.9120000      0.0000000E+00
  0.9240000      0.0000000E+00
  0.9360000      0.0000000E+00
  0.9480000      0.0000000E+00
  0.9600000      0.0000000E+00
  0.9720000      0.0000000E+00
  0.9840000      0.0000000E+00
  0.9960000      0.0000000E+00
   1.008000      0.0000000E+00
   1.020000      0.0000000E+00
   1.032000      0.0000000E+00
   1.044000      0.0000000E+00
   1.056000      0.0000000E+00
   1.068000      0.0000000E+00
   1.080000      0.0000000E+00
   1.092000      0.0000000E+00
   1.104000      0.0000000E+00
   1.116000      0.0000000E+00
   1.128000      0.0000000E+00
   1.140000      0.0000000E+00
   1.152000      0.0000000E+00
   1.164000      0.0000000E+00
   1.176000      0.0000000E+00
   1.188000      0.0000000E+00
   1.200000      0.0000000E+00
   1.212000      0.0000000E+00
   1.224000      0.0000000E+00
   1.236000      0.0000000E+00
   1.248000      0.0000000E+00
   1.260000      0.0000000E+00
   1.272000      0.0000000E+00
   1.284000      0.0000000E+00
   1.296000      0.0000000E+00
   1.308000      0.0000000E+00
   1.320000      0.0000000E+00
   1.332000      0.0000000E+00
   1.344000      0.0000000E+00
   1.356000      0.0000000E+00
   1.368000      0.0000000E+00
   1.380000      0.0000000E+00
   1.392000      0.0000000E+00
   1.404000      0.0000000E+00
   1.416000      0.0000000E+00
   1.428000      0.0000000E+00
   1.440000      0.0000000E+00
   1.452000      0.0000000E+00
   1.464000      0.0000000E+00
   1.476000      0.0000000E+00
   1.488000      0.0000000E+00
   1.500000      0.0000000E+00
   1.512000      0.0000000E+00
   1.524000      0.0000000E+00
   1.536000      0.0000000E+00
   1.548000      0.0000000E+00
   1.560000      0.0000000E+00
   1.572000      0.0000000E+00
   1.584000      0.0000000E+00
   1.596000      0.0000000E+00
   1.608000      0.0000000E+00
   1.620000      0.0000000E+00
   1.632000      0.0000000E+00
   1.644000      0.0000000E+00
   1.656000      0.0000000E+00
   1.668000      0.0000000E+00
   1.680000      0.0000000E+00
   1.692000      0.0000000E+00
   1.704000      0.0000000E+00
   1.716000      0.0000000E+00
   1.728000      0.0000000E+00
   1.740000      0.0000000E+00
   1.752000      0.0000000E+00
   1.764000      0.0000000E+00
   1.776000      0.0000000E+00
   1.788000      0.0000000E+00
   1.800000      0.0000000E+00
   1.812000      0.0000000E+00
   1.824000      0.0000000E+00
   1.836000      0.0000000E+00
   1.848000      0.0000000E+00
   1.860000      0.0000000E+00
   1.872000      0.0000000E+00
   1.884000      0.0000000E+00
   1.896000      0.0000000E+00
   1.908000      0.0000000E+00
   1.920000      0.0000000E+00
   1.932000      0.0000000E+00
   1.944000      0.0000000E+00
   1.956000      0.0000000E+00
   1.968000      0.0000000E+00
   1.980000      0.0000000E+00
   1.992000      0.0000000E+00
   2.004000      0.0000000E+00
   2.016000      0.0000000E+00
   2.028000      0.0000000E+00
   2.040000      0.0000000E+00
   2.052000      0.0000000E+00
   2.064000      0.0000000E+00
   2.076000      0.0000000E+00
   2.088000      0.0000000E+00
   2.100000      0.0000000E+00
   2.112000      0.0000000E+00
   2.124000      0.0000000E+00
   2.136000      0.0000000E+00
   2.148000      0.0000000E+00
   2.160000      0.0000000E+00
   2.172000      0.0000000E+00
   2.184000      0.0000000E+00
   2.196000      0.0000000E+00
   2.208000      0.0000000E+00
   2.220000      0.0000000E+00
   2.232000      0.0000000E+00
   2.244000      0.0000000E+00
   2.256000      0.0000000E+00
   2.268000      0.0000000E+00
   2.280000      0.0000000E+00
   2.292000      0.0000000E+00
   2.304000      0.0000000E+00
   2.316000      0.0000000E+00
   2.328000      0.0000000E+00
   2.340000      0.0000000E+00
   2.352000      0.0000000E+00
   2.364000      0.0000000E+00
   2.376000      0.0000000E+00
   2.388000      0.0000000E+00
   2.400000      0.0000000E+00
   2.412000      0.0000000E+00
   2.424000      0.0000000E+00
   2.436000      0.0000000E+00
   2.448000      0.0000000E+00
   2.460000      0.0000000E+00
   2.472000      0.0000000E+00
   2.484000      0.0000000E+00
   2.496000      0.0000000E+00
   2.508000      0.0000000E+00
   2.520000      0.0000000E+00
   2.532000      0.0000000E+00
   2.544000      0.0000000E+00
   2.556000      0.0000000E+00
   2.568000      0.0000000E+00
   2.580000      0.0000000E+00
   2.592000      0.0000000E+00
   2.604000      0.0000000E+00
   2.616000      0.0000000E+00
   2.628000      0.0000000E+00
   2.640000      0.0000000E+00
   2.652000      0.0000000E+00
   2.664000      0.0000000E+00
   2.676000      0.0000000E+00
   2.688000      0.0000000E+00
   2.700000      0.0000000E+00
   2.712000      0.0000000E+00
   2.724000      0.0000000E+00
   2.736000      0.0000000E+00
   2.748000      0.0000000E+00
   2.760000      0.0000000E+00
   2.772000      0.0000000E+00
   2.784000      0.0000000E+00
   2.796000      0.0000000E+00
   2.808000      0.0000000E+00
   2.820000      0.0000000E+00
   2.832000      0.0000000E+00
   2.844000      0.0000000E+00
   2.856000      0.0000000E+00
   2.868000      0.0000000E+00
   2.880000      0.0000000E+00
   2.892000      0.0000000E+00
   2.904000      0.0000000E+00
   2.916000      0.0000000E+00
   2.928000      0.0000000E+00
   2.940000      0.0000000E+00
   2.952000      0.0000000E+00
   2.964000      0.0000000E+00
   2.976000      0.0000000E+00
   2.988000      0.0000000E+00
   3.000000      0.0000000E+00
   3.012000      0.0000000E+00
   3.024000      0.0000000E+00
   3.036000      0.0000000E+00
   3.048000      0.0000000E+00
   3.060000      0.0000000E+00
   3.072000      0.0000000E+00
   3.084000      0.0000000E+00
   3.096000      0.0000000E+00
   3.108000      0.0000000E+00
   3.120000      0.0000000E+00
   3.132000      0.0000000E+00
   3.144000      0.0000000E+00
   3.156000      0.0000000E+00
   3.168000      0.0000000E+00
   3.180000      0.0000000E+00
   3.192000      0.0000000E+00
   3.204000      0.0000000E+00
   3.216000      0.0000000E+00
   3.228000      0.0000000E+00
   3.240000      0.0000000E+00
   3.252000      0.0000000E+00
   3.264000      0.0000000E+00
   3.276000      0.0000000E+00
   3.288000      0.0000000E+00
   3.300000      0.0000000E+00
   3.312000      0.0000000E+00
   3.324000      0.0000000E+00
   3.336000      0.0000000E+00
   3.348000      0.0000000E+00
   3.360000      0.0000000E+00
   3.372000      0.0000000E+00
   3.384000      0.0000000E+00
   3.396000      0.0000000E+00
   3.408000      0.0000000E+00
   3.420000      0.0000000E+00
   3.432000      0.0000000E+00
   3.444000      0.0000000E+00
   3.456000      0.0000000E+00
   3.468000      0.0000000E+00
   3.480000      0.0000000E+00
   3.492000      0.0000000E+00
   3.504000      0.0000000E+00
   3.516000      0.0000000E+00
   3.528000      0.0000000E+00
   3.540000      0.0000000E+00
   3.552000      0.0000000E+00
   3.564000      0.0000000E+00
   3.576000      0.0000000E+00
   3.588000      0.0000000E+00
   3.600000      0.0000000E+00
   3.612000      0.0000000E+00
   3.624000      0.0000000E+00
   3.636000      0.0000000E+00
   3.648000      0.0000000E+00
   3.660000      0.0000000E+00
   3.672000      0.0000000E+00
   3.684000      0.0000000E+00
   3.696000      0.0000000E+00
   3.708000      0.0000000E+00
   3.720000      0.0000000E+00
   3.732000      0.0000000E+00
   3.744000      0.0000000E+00
   3.756000      0.0000000E+00
   3.768000      0.0000000E+00
   3.780000      0.0000000E+00
   3.792000      0.0000000E+00
   3.804000      0.0000000E+00
   3.816000      0.0000000E+00
   3.828000      0.0000000E+00
   3.840000      0.0000000E+00
   3.852000      0.0000000E+00
   3.864000      0.0000000E+00
   3.876000      0.0000000E+00
   3.888000      0.0000000E+00
   3.900000      0.0000000E+00
   3.912000      0.0000000E+00
   3.924000      0.0000000E+00
   3.936000      0.0000000E+00
   3.948000      0.0000000E+00
   3.960000      0.0000000E+00
   3.972000      0.0000000E+00
   3.984000      0.0000000E+00
   3.996000      0.0000000E+00
   4.008000      0.0000000E+00
   4.020000      0.0000000E+00
   4.032000      0.0000000E+00
   4.044000      0.0000000E+00
   4.056000      0.0000000E+00
   4.068000      0.0000000E+00
   4.080000      0.0000000E+00
   4.092000      0.0000000E+00
   4.104000      0.0000000E+00
   4.116000      0.0000000E+00
   4.128000      0.0000000E+00
   4.140000      0.0000000E+00
   4.152000      0.0000000E+00
   4.164000      0.0000000E+00
   4.176000      0.0000000E+00
   4.188000      0.0000000E+00
   4.200000      0.0000000E+00
   4.212000      0.0000000E+00
   4.224000      0.0000000E+00
   4.236000      0.0000000E+00
   4.248000      0.0000000E+00
   4.260000      0.0000000E+00
   4.272000      0.0000000E+00
   4.284000      0.0000000E+00
   4.296000      0.0000000E+00
   4.308000      0.0000000E+00
   4.320000      0.0000000E+00
   4.332000      0.0000000E+00
   4.344000      0.0000000E+00
   4.356000      0.0000000E+00
   4.368000      0.0000000E+00
   4.380000      0.0000000E+00
   4.392000      0.0000000E+00
   4.404000      0.0000000E+00
   4.416000      0.0000000E+00
   4.428000      0.0000000E+00
   4.440000      0.0000000E+00
   4.452000      0.0000000E+00
   4.464000      0.0000000E+00
   4.476000      0.0000000E+00
   4.488000      0.0000000E+00
   4.500000      0.0000000E+00
   4.512000      0.0000000E+00
   4.524000      0.0000000E+00
   4.536000      0.0000000E+00
   4.548000      0.0000000E+00
   4.560000      0.0000000E+00
   4.572000      0.0000000E+00
   4.584000      0.0000000E+00
   4.596000      0.0000000E+00
   4.608000      0.0000000E+00
   4.620000      0.0000000E+00
   4.632000      0.0000000E+00
   4.644000      0.0000000E+00
   4.656000      0.0000000E+00
   4.668000      0.0000000E+00
   4.680000      0.0000000E+00
   4.692000      0.0000000E+00
   4.704000      0.0000000E+00
   4.716000      0.0000000E+00
   4.728000      0.0000000E+00
   4.740000      0.0000000E+00
   4.752000      0.0000000E+00
   4.764000      0.0000000E+00
   4.776000      0.0000000E+00
   4.788000      0.0000000E+00
   4.800000      0.0000000E+00
   4.812000      0.0000000E+00
   4.824000      0.0000000E+00
   4.836000      0.0000000E+00
   4.848000      0.0000000E+00
   4.860000      0.0000000E+00
   4.872000      0.0000000E+00
   4.884000      0.0000000E+00
   4.896000      0.0000000E+00
   4.908000      0.0000000E+00
   4.920000      0.0000000E+00
   4.932000      0.0000000E+00
   4.944000      0.0000000E+00
   4.956000      0.0000000E+00
   4.968000      0.0000000E+00
   4.980000      0.0000000E+00
   4.992000      0.0000000E+00
   5.004000      0.0000000E+00
   5.016000      0.0000000E+00
   5.028000      0.0000000E+00
   5.040000      0.0000000E+00
   5.052000      0.0000000E+00
   5.064000      0.0000000E+00
   5.076000      0.0000000E+00
   5.088000      0.0000000E+00
   5.100000      0.0000000E+00
   5.112000      0.0000000E+00
   5.124000      0.0000000E+00
   5.136000      0.0000000E+00
   5.148000      0.0000000E+00
   5.160000      0.0000000E+00
   5.172000      0.0000000E+00
   5.184000      0.0000000E+00
   5.196000      0.0000000E+00
   5.208000      0.0000000E+00
   5.220000      0.0000000E+00
   5.232000      0.0000000E+00
   5.244000      0.0000000E+00
   5.256000      0.0000000E+00
   5.268000      0.0000000E+00
   5.280000      0.0000000E+00
   5.292000      0.0000000E+00
   5.304000      0.0000000E+00
   5.316000      0.0000000E+00
   5.328000      0.0000000E+00
   5.340000      0.0000000E+00
   5.352000      0.0000000E+00
   5.364000      0.0000000E+00
   5.376000      0.0000000E+00
   5.388000      0.0000000E+00
   5.400000      0.0000000E+00
   5.412000      0.0000000E+00
   5.424000      0.0000000E+00
   5.436000      0.0000000E+00
   5.448000      0.0000000E+00
   5.460000      0.0000000E+00
   5.472000      0.0000000E+00
   5.484000      0.0000000E+00
   5.496000      0.0000000E+00
   5.508000      0.0000000E+00
   5.520000      0.0000000E+00
   5.532000      0.0000000E+00
   5.544000      0.0000000E+00
   5.556000      0.0000000E+00
   5.568000      0.0000000E+00
   5.580000      0.0000000E+00
   5.592000      0.0000000E+00
   5.604000      0.0000000E+00
   5.616000      0.0000000E+00
   5.628000      0.0000000E+00
   5.640000      0.0000000E+00
   5.652000      0.0000000E+00
   5.664000      0.0000000E+00
   5.676000      0.0000000E+00
   5.688000      0.0000000E+00
   5.700000      0.0000000E+00
   5.712000      0.0000000E+00
   5.724000      0.0000000E+00
   5.736000      0.0000000E+00
   5.748000      0.0000000E+00
   5.760000      0.0000000E+00
   5.772000      0.0000000E+00
   5.784000      0.0000000E+00
   5.796000      0.0000000E+00
   5.808000      0.0000000E+00
   5.820000      0.0000000E+00
   5.832000      0.0000000E+00
   5.844000      0.0000000E+00
   5.856000      0.0000000E+00
   5.868000      0.0000000E+00
   5.880000      0.0000000E+00
   5.892000      0.0000000E+00
   5.904000      0.0000000E+00
   5.916000      0.0000000E+00
   5.928000      0.0000000E+00
   5.940000      0.0000000E+00
   5.952000      0.0000000E+00
   5.964000      0.0000000E+00
   5.976000      0.0000000E+00
   5.988000      0.0000000E+00
   6.000000      0.0000000E+00
   6.012000      0.0000000E+00
   6.024000      0.0000000E+00
   6.036000      0.0000000E+00
   6.048000      0.0000000E+00
   6.060000      0.0000000E+00
   6.072000      0.0000000E+00
   6.084000      0.0000000E+00
   6.096000      0.0000000E+00
   6.108000      0.0000000E+00
   6.120000      0.0000000E+00
   6.132000      0.0000000E+00
   6.144000      0.0000000E+00
   6.156000      0.0000000E+00
   6.168000      0.0000000E+00
   6.180000      0.0000000E+00
   6.192000      0.0000000E+00
   6.204000      0.0000000E+00
   6.216000      0.0000000E+00
   6.228000      0.0000000E+00
   6.240000      0.0000000E+00
   6.252000      0.0000000E+00
   6.264000      0.0000000E+00
   6.276000      0.0000000E+00
   6.288000      0.0000000E+00
   6.300000      0.0000000E+00
   6.312000      0.0000000E+00
   6.324000      0.0000000E+00
   6.336000      0.0000000E+00
   6.348000      0.0000000E+00
   6.360000      0.0000000E+00
   6.372000      0.0000000E+00
   6.384000      0.0000000E+00
   6.396000      0.0000000E+00
   6.408000      0.0000000E+00
   6.420000      0.0000000E+00
   6.432000      0.0000000E+00
   6.444000      0.0000000E+00
   6.456000      0.0000000E+00
   6.468000      0.0000000E+00
   6.480000      0.0000000E+00
   6.492000      0.0000000E+00
   6.504000      0.0000000E+00
   6.516000      0.0000000E+00
   6.528000      0.0000000E+00
   6.540000      0.0000000E+00
   6.552000      0.0000000E+00
   6.564000      0.0000000E+00
   6.576000      0.0000000E+00
   6.588000      0.0000000E+00
   6.600000      0.0000000E+00
   6.612000      0.0000000E+00
   6.624000      0.0000000E+00
   6.636000      0.0000000E+00
   6.648000      0.0000000E+00
   6.660000      0.0000000E+00
   6.672000      0.0000000E+00
   6.684000      0.0000000E+00
   6.696000      0.0000000E+00
   6.708000      0.0000000E+00
   6.720000      0.0000000E+00
   6.732000      0.0000000E+00
   6.744000      0.0000000E+00
   6.756000      0.0000000E+00
   6.768000      0.0000000E+00
   6.780000      0.0000000E+00
   6.792000      0.0000000E+00
   6.804000      0.0000000E+00
   6.816000      0.0000000E+00
   6.828000      0.0000000E+00
   6.840000      0.0000000E+00
   6.852000      0.0000000E+00
   6.864000      0.0000000E+00
   6.876000      0.0000000E+00
   6.888000      0.0000000E+00
   6.900000      0.0000000E+00
   6.912000      0.0000000E+00
   6.924000      0.0000000E+00
   6.936000      0.0000000E+00
   6.948000      0.0000000E+00
   6.960000      3.4689872E-38
   6.972000      1.2999623E-37
   6.984000      2.3655864E-37
   6.996000      3.0554728E-37
   7.008000      2.8419400E-37
   7.020000      1.4202363E-37
   7.032000     -1.0321573E-37
   7.044000     -3.3777044E-37
   7.056000     -5.7901132E-37
   7.068000     -4.0083974E-37
   7.080000      2.8677898E-37
   7.092000      1.1860534E-36
   7.104000      2.1504806E-36
   7.116000      2.6379418E-36
   7.128000      2.3317752E-36
   7.140000      1.1291545E-36
   7.152000     -6.8774374E-37
   7.164000     -2.6200086E-36
   7.176000     -3.9473867E-36
   7.188000     -4.1396952E-36
   7.200000     -3.0930938E-36
   7.212000     -1.2019376E-36
   7.224000      7.8263465E-37
   7.236000      2.2514139E-36
   7.248000      2.6575072E-36
   7.260000      1.8837136E-36
   7.272000      3.6953579E-37
   7.284000     -1.2334105E-36
   7.296000     -2.2141680E-36
   7.308000     -1.9327837E-36
   7.320000     -3.1594933E-37
   7.332000      2.0698551E-36
   7.344000      4.0125619E-36
   7.356000      4.5455460E-36
   7.368000      3.3555517E-36
   7.380000      1.0354981E-36
   7.392000     -2.0662526E-36
   7.404000     -4.7877205E-36
   7.416000     -6.1133878E-36
   7.428000     -5.3379450E-36
   7.440000     -2.4929913E-36
   7.452000      1.9788501E-36
   7.464000      6.9413135E-36
   7.476000      1.1099905E-35
   7.488000      1.3872855E-35
   7.500000      1.5186592E-35
   7.512000      1.5459471E-35
   7.524000      1.5409721E-35
   7.536000      1.5415046E-35
   7.548000      1.5431989E-35
   7.560000      1.4860077E-35
   7.572000      1.2518526E-35
   7.584000      7.1467789E-36
   7.596000     -2.0932287E-36
   7.608000     -1.5068127E-35
   7.620000     -3.0744016E-35
   7.632000     -4.6791540E-35
   7.644000     -6.0487817E-35
   7.656000     -6.9513415E-35
   7.668000     -7.2006456E-35
   7.680000     -6.7411283E-35
   7.692000     -5.5827866E-35
   7.704000     -3.8877487E-35
   7.716000     -1.8117995E-35
   7.728000      5.0670823E-36
   7.740000      2.9968878E-35
   7.752000      5.6179923E-35
   7.764000      8.3657000E-35
   7.776000      1.1192618E-34
   7.788000      1.3934617E-34
   7.800000      1.6369477E-34
   7.812000      1.8124244E-34
   7.824000      1.8819907E-34
   7.836000      1.8146748E-34
   7.848000      1.5904820E-34
   7.860000      1.2022694E-34
   7.872000      6.6037545E-35
   7.884000     -1.3321189E-36
   7.896000     -7.9241658E-35
   7.908000     -1.6455049E-34
   7.920000     -2.5383423E-34
   7.932000     -3.4305354E-34
   7.944000     -4.2733095E-34
   7.956000     -5.0025550E-34
   7.968000     -5.5423608E-34
   7.980000     -5.8094579E-34
   7.992000     -5.7217399E-34
   8.004000     -5.2107089E-34
   8.016000     -4.2309320E-34
   8.028000     -2.7680777E-34
   8.040000     -8.4463333E-35
   8.052000      1.4837993E-34
   8.064000      4.1315183E-34
   8.076000      6.9858651E-34
   8.088000      9.9084706E-34
   8.100000      1.2735088E-33
   8.112000      1.5274498E-33
   8.124000      1.7310236E-33
   8.136000      1.8608184E-33
   8.148000      1.8930962E-33
   8.160000      1.8059540E-33
   8.172000      1.5817865E-33
   8.184000      1.2097465E-33
   8.196000      6.8772173E-34
   8.208000      2.3598208E-35
   8.220000     -7.6422469E-34
   8.232000     -1.6469223E-33
   8.244000     -2.5856334E-33
   8.256000     -3.5320674E-33
   8.268000     -4.4292862E-33
   8.280000     -5.2128976E-33
   8.292000     -5.8129790E-33
   8.304000     -6.1571031E-33
   8.316000     -6.1745699E-33
   8.328000     -5.8017244E-33
   8.340000     -4.9879432E-33
   8.352000     -3.7016949E-33
   8.364000     -1.9360493E-33
   8.376000      2.8685726E-34
   8.388000      2.9126818E-33
   8.400000      5.8531284E-33
   8.412000      8.9855758E-33
   8.424000      1.2154092E-32
   8.436000      1.5171987E-32
   8.448000      1.7826213E-32
   8.460000      1.9884053E-32
   8.472000      2.1102448E-32
   8.484000      2.1240104E-32
   8.496000      2.0072263E-32
   8.508000      1.7407618E-32
   8.520000      1.3106718E-32
   8.532000      7.1009476E-33
   8.544000     -5.8872045E-34
   8.556000     -9.8341424E-33
   8.568000     -2.0384540E-32
   8.580000     -3.1854301E-32
   8.592000     -4.3715527E-32
   8.604000     -5.5297159E-32
   8.616000     -6.5792701E-32
   8.628000     -7.4278777E-32
   8.640000     -7.9746442E-32
   8.652000     -8.1146808E-32
   8.664000     -7.7451753E-32
   8.676000     -6.7729369E-32
   8.688000     -5.1232787E-32
   8.700000     -2.7499594E-32
   8.712000      3.5427570E-33
   8.724000      4.1471514E-32
   8.736000      8.5271254E-32
   8.748000      1.3325442E-31
   8.760000      1.8301102E-31
   8.772000      2.3139997E-31
   8.784000      2.7459466E-31
   8.796000      3.0819459E-31
   8.808000      3.2741246E-31
   8.820000      3.2734233E-31
   8.832000      3.0330937E-31
   8.844000      2.5129384E-31
   8.856000      1.6841483E-31
   8.868000      5.3449076E-32
   8.880000     -9.2649156E-32
   8.892000     -2.6627028E-31
   8.904000     -4.6076463E-31
   8.916000     -6.6620761E-31
   8.928000     -8.6937333E-31
   8.940000     -1.0539733E-30
   8.952000     -1.2012078E-30
   8.964000     -1.2906631E-30
   8.976000     -1.3015690E-30
   8.988000     -1.2143979E-30
   9.000000     -1.0127581E-30
   9.012000     -6.8549348E-31
   9.024000     -2.2886370E-31
   9.036000      3.5136175E-31
   9.048000      1.0380920E-30
   9.060000      1.8016098E-30
   9.072000      2.5990043E-30
   9.084000      3.3745663E-30
   9.096000      4.0613461E-30
   9.108000      4.5840116E-30
   9.120000      4.8630803E-30
   9.132000      4.8204834E-30
   9.144000      4.3863092E-30
   9.156000      3.5064259E-30
   9.168000      2.1505489E-30
   9.180000      3.2017116E-31
   9.192000     -1.9443380E-30
   9.204000     -4.5582571E-30
   9.216000     -7.3894825E-30
   9.228000     -1.0258756E-29
   9.240000     -1.2943850E-29
   9.252000     -1.5188257E-29
   9.264000     -1.6714654E-29
   9.276000     -1.7243033E-29
   9.288000     -1.6513077E-29
   9.300000     -1.4309778E-29
   9.312000     -1.0490880E-29
   9.324000     -5.0142779E-30
   9.336000      2.0369502E-30
   9.348000      1.0434451E-29
   9.360000      1.9792174E-29
   9.372000      2.9564298E-29
   9.384000      3.9055843E-29
   9.396000      4.7447791E-29
   9.408000      5.3837668E-29
   9.420000      5.7295477E-29
   9.432000      5.6933510E-29
   9.444000      5.1987235E-29
   9.456000      4.1902741E-29
   9.468000      2.6425050E-29
   9.480000      5.6800274E-30
   9.492000     -1.9758031E-29
   9.504000     -4.8821647E-29
   9.516000     -7.9936505E-29
   9.528000     -1.1104629E-28
   9.540000     -1.3968167E-28
   9.552000     -1.6307665E-28
   9.564000     -1.7833216E-28
   9.576000     -1.8262285E-28
   9.588000     -1.7343869E-28
   9.600000     -1.4884863E-28
   9.612000     -1.0776903E-28
   9.624000     -5.0216171E-29
   9.636000      2.2481270E-29
   9.648000      1.0753417E-28
   9.660000      2.0063425E-28
   9.672000      2.9600626E-28
   9.684000      3.8658850E-28
   9.696000      4.6435081E-28
   9.708000      5.2075099E-28
   9.720000      5.4731881E-28
   9.732000      5.3634390E-28
   9.744000      4.8163261E-28
   9.756000      3.7928441E-28
   9.768000      2.2842998E-28
   9.780000      3.1863747E-29
   9.792000     -2.0349942E-28
   9.804000     -4.6641233E-28
   9.816000     -7.4139063E-28
   9.828000     -1.0091635E-27
   9.840000     -1.2475089E-27
   9.852000     -1.4324756E-27
   9.864000     -1.5399665E-27
   9.876000     -1.5476177E-27
   9.888000     -1.4368807E-27
   9.900000     -1.1951747E-27
   9.912000     -8.1795121E-28
   9.924000     -3.1048851E-28
   9.936000      3.1077347E-28
   9.948000      1.0175479E-27
   9.960000      1.7698345E-27
   9.972000      2.5170048E-27
   9.984000      3.1999226E-27
   9.996000      3.7541124E-27
   10.00800      4.1139038E-27
   10.02000      4.2174002E-27
   10.03200      4.0120125E-27
   10.04400      3.4602213E-27
   10.05600      2.5451509E-27
   10.06800      1.2754777E-27
   10.08000     -3.1083477E-28
   10.09200     -2.1444660E-27
   10.10400     -4.1247892E-27
   10.11600     -6.1224026E-27
   10.12800     -7.9843647E-27
   10.14000     -9.5421825E-27
   10.15200     -1.0622394E-26
   10.16400     -1.1059345E-26
   10.17600     -1.0709532E-26
   10.18800     -9.4666382E-27
   10.20000     -7.2762034E-27
   10.21200     -4.1487019E-27
   10.22400     -1.6973069E-28
   10.23600      4.4939780E-27
   10.24800      9.5938975E-27
   10.26000      1.4805352E-26
   10.27200      1.9740090E-26
   10.28400      2.3965950E-26
   10.29600      2.7033262E-26
   10.30800      2.8507063E-26
   10.32000      2.8003551E-26
   10.33200      2.5228638E-26
   10.34400      2.0015962E-26
   10.35600      1.2361267E-26
   10.36800      2.4498975E-27
   10.38000     -9.3258859E-27
   10.39200     -2.2362803E-26
   10.40400     -3.5858159E-26
   10.41600     -4.8838847E-26
   10.42800     -6.0208403E-26
   10.44000     -6.8811369E-26
   10.45200     -7.3512912E-26
   10.46400     -7.3289991E-26
   10.47600     -6.7328982E-26
   10.48800     -5.5123246E-26
   10.50000     -3.6563161E-26
   10.51200     -1.2010515E-26
   10.52400      1.7651100E-26
   10.53600      5.0997509E-26
   10.54800      8.6083460E-26
   10.56000      1.2050511E-25
   10.57200      1.5150761E-25
   10.58400      1.7613706E-25
   10.59600      1.9143225E-25
   10.60800      1.9464822E-25
   10.62000      1.8349982E-25
   10.63200      1.5640994E-25
   10.64400      1.1274478E-25
   10.65600      5.3016075E-26
   10.66800     -2.0969727E-26
   10.68000     -1.0603547E-25
   10.69200     -1.9764709E-25
   10.70400     -2.9003090E-25
   10.71600     -3.7640148E-25
   10.72800     -4.4930120E-25
   10.74000     -5.0104308E-25
   10.75200     -5.2424111E-25
   10.76400     -5.1240194E-25
   10.77600     -4.6054498E-25
   10.78800     -3.6580915E-25
   10.80000     -2.2799998E-25
   10.81200     -5.0028702E-26
   10.82400      1.6180576E-25
   10.83600      3.9773563E-25
   10.84800      6.4468070E-25
   10.86000      8.8666674E-25
   10.87200      1.1055154E-24
   10.88400      1.2817965E-24
   10.89600      1.3960148E-24
   10.90800      1.4299801E-24
   10.92000      1.3682924E-24
   10.93200      1.1998524E-24
   10.94400      9.1929639E-25
   10.95600      5.2824167E-25
   10.96800      3.6229784E-26
   10.98000     -5.3874220E-25
   10.99200     -1.1701985E-24
   11.00400     -1.8237425E-24
   11.01600     -2.4582397E-24
   11.02800     -3.0276320E-24
   11.04000     -3.4833455E-24
   11.05200     -3.7772100E-24
   11.06400     -3.8647625E-24
   11.07600     -3.7087609E-24
   11.08800     -3.2826985E-24
   11.10000     -2.5740861E-24
   11.11200     -1.5872435E-24
   11.12400     -3.4535956E-25
   11.13600      1.1084234E-24
   11.14800      2.7110911E-24
   11.16000      4.3811524E-24
   11.17200      6.0214230E-24
   11.18400      7.5231882E-24
   11.19600      8.7716442E-24
   11.20800      9.6524255E-24
   11.22000      1.0058924E-23
   11.23200      9.9000253E-24
   11.24400      9.1078141E-24
   11.25600      7.6447493E-24
   11.26800      5.5098033E-24
   11.28000      2.7430342E-24
   11.29200     -5.7184724E-25
   11.30400     -4.3073241E-24
   11.31600     -8.2945947E-24
   11.32800     -1.2328908E-23
   11.34000     -1.6177682E-23
   11.35200     -1.9591206E-23
   11.36400     -2.2315526E-23
   11.37600     -2.4106968E-23
   11.38800     -2.4747570E-23
   11.40000     -2.4060589E-23
   11.41200     -2.1925183E-23
   11.42400     -1.8289301E-23
   11.43600     -1.3179855E-23
   11.44800     -6.7093638E-24
   11.46000      9.2164582E-25
   11.47200      9.4269793E-24