 -0.1200000      0.0000000E+00
 -0.1080000      0.0000000E+00
 -9.6000001E-02  0.0000000E+00
 -8.3999999E-02  0.0000000E+00
 -7.1999997E-02  0.0000000E+00
 -5.9999999E-02  0.0000000E+00
 -4.8000000E-02  0.0000000E+00
 -3.5999998E-02  0.0000000E+00
 -2.4000000E-02  0.0000000E+00
 -1.2000000E-02  0.0000000E+00
  6.9388939E-18  0.0000000E+00
  1.2000000E-02  0.0000000E+00
  2.4000000E-02  0.0000000E+00
  3.5999998E-02  0.0000000E+00
  4.8000000E-02  0.0000000E+00
  5.9999999E-02  0.0000000E+00
  7.1999997E-02  0.0000000E+00
  8.3999999E-02  0.0000000E+00
  9.6000001E-02  0.0000000E+00
  0.1080000      0.0000000E+00
  0.1200000      0.0000000E+00
  0.1320000      0.0000000E+00
  0.1440000      0.0000000E+00
  0.1560000      0.0000000E+00
  0.1680000      0.0000000E+00
  0.1800000      0.0000000E+00
  0.1920000      0.0000000E+00
  0.2040000      0.0000000E+00
  0.2160000      0.0000000E+00
  0.2280000      0.0000000E+00
  0.2400000      0.0000000E+00
  0.2520000      0.0000000E+00
  0.2640000      0.0000000E+00
  0.2760000      0.0000000E+00
  0.2880000      0.0000000E+00
  0.3000000      0.0000000E+00
  0.3120000      0.0000000E+00
  0.3240000      0.0000000E+00
  0.3360000      0.0000000E+00
  0.3480000      0.0000000E+00
  0.3600000      0.0000000E+00
  0.3720000      0.0000000E+00
  0.3840000      0.0000000E+00
  0.3960000      0.0000000E+00
  0.4080000      0.0000000E+00
  0.4200000      0.0000000E+00
  0.4320000      0.0000000E+00
  0.4440000      0.0000000E+00
  0.4560000      0.0000000E+00
  0.4680000      0.0000000E+00
  0.4800000      0.0000000E+00
  0.4920000      0.0000000E+00
  0.5040000      0.0000000E+00
  0.5160000      0.0000000E+00
  0.5280000      0.0000000E+00
  0.5400000      0.0000000E+00
  0.5520000      0.0000000E+00
  0.5640000      0.0000000E+00
  0.5760000      0.0000000E+00
  0.5880000      0.0000000E+00
  0.6000000      0.0000000E+00
  0.6120000      0.0000000E+00
  0.6240000      0.0000000E+00
  0.6360000      0.0000000E+00
  0.6480000      0.0000000E+00
  0.6600000      0.0000000E+00
  0.6720000      0.0000000E+00
  0.6840000      0.0000000E+00
  0.6960000      0.0000000E+00
  0.7080000      0.0000000E+00
  0.7200000      0.0000000E+00
  0.7320000      0.0000000E+00
  0.7440000      0.0000000E+00
  0.7560000      0.0000000E+00
  0.7680000      0.0000000E+00
  0.7800000      0.0000000E+00
  0.7920000      0.0000000E+00
  0.8040000      0.0000000E+00
  0.8160000      0.0000000E+00
  0.8280000      0.0000000E+00
  0.8400000      0.0000000E+00
  0.8520000      0.0000000E+00
  0.8640000      0.0000000E+00
  0.8760000      0.0000000E+00
  0.8880000      0.0000000E+00
  0.9000000      0.0000000E+00
  0.9120000      0.0000000E+00
  0.9240000      0.0000000E+00
  0.9360000      0.0000000E+00
  0.9480000      0.0000000E+00
  0.9600000      0.0000000E+00
  0.9720000      0.0000000E+00
  0.9840000      0.0000000E+00
  0.9960000      0.0000000E+00
   1.008000      0.0000000E+00
   1.020000      0.0000000E+00
   1.032000      0.0000000E+00
   1.044000      0.0000000E+00
   1.056000      0.0000000E+00
   1.068000      0.0000000E+00
   1.080000      0.0000000E+00
   1.092000      0.0000000E+00
   1.104000      0.0000000E+00
   1.116000      0.0000000E+00
   1.128000      0.0000000E+00
   1.140000      0.0000000E+00
   1.152000      0.0000000E+00
   1.164000      0.0000000E+00
   1.176000      0.0000000E+00
   1.188000      0.0000000E+00
   1.200000      0.0000000E+00
   1.212000      0.0000000E+00
   1.224000      0.0000000E+00
   1.236000      0.0000000E+00
   1.248000      0.0000000E+00
   1.260000      0.0000000E+00
   1.272000      0.0000000E+00
   1.284000      0.0000000E+00
   1.296000      0.0000000E+00
   1.308000      0.0000000E+00
   1.320000      0.0000000E+00
   1.332000      0.0000000E+00
   1.344000      0.0000000E+00
   1.356000      0.0000000E+00
   1.368000      0.0000000E+00
   1.380000      0.0000000E+00
   1.392000      0.0000000E+00
   1.404000      0.0000000E+00
   1.416000      0.0000000E+00
   1.428000      0.0000000E+00
   1.440000      0.0000000E+00
   1.452000      0.0000000E+00
   1.464000      0.0000000E+00
   1.476000      0.0000000E+00
   1.488000      0.0000000E+00
   1.500000      0.0000000E+00
   1.512000      0.0000000E+00
   1.524000      0.0000000E+00
   1.536000      0.0000000E+00
   1.548000      0.0000000E+00
   1.560000      0.0000000E+00
   1.572000      0.0000000E+00
   1.584000      0.0000000E+00
   1.596000      0.0000000E+00
   1.608000      0.0000000E+00
   1.620000      0.0000000E+00
   1.632000      0.0000000E+00
   1.644000      0.0000000E+00
   1.656000      0.0000000E+00
   1.668000      0.0000000E+00
   1.680000      0.0000000E+00
   1.692000      0.0000000E+00
   1.704000      0.0000000E+00
   1.716000      0.0000000E+00
   1.728000      0.0000000E+00
   1.740000      0.0000000E+00
   1.752000      0.0000000E+00
   1.764000      0.0000000E+00
   1.776000      0.0000000E+00
   1.788000      0.0000000E+00
   1.800000      0.0000000E+00
   1.812000      0.0000000E+00
   1.824000      0.0000000E+00
   1.836000      0.0000000E+00
   1.848000      0.0000000E+00
   1.860000      0.0000000E+00
   1.872000      0.0000000E+00
   1.884000      0.0000000E+00
   1.896000      0.0000000E+00
   1.908000      0.0000000E+00
   1.920000      0.0000000E+00
   1.932000      0.0000000E+00
   1.944000      0.0000000E+00
   1.956000      0.0000000E+00
   1.968000      0.0000000E+00
   1.980000      0.0000000E+00
   1.992000      0.0000000E+00
   2.004000      0.0000000E+00
   2.016000      0.0000000E+00
   2.028000      0.0000000E+00
   2.040000      0.0000000E+00
   2.052000      0.0000000E+00
   2.064000      0.0000000E+00
   2.076000      0.0000000E+00
   2.088000      0.0000000E+00
   2.100000      0.0000000E+00
   2.112000      0.0000000E+00
   2.124000      0.0000000E+00
   2.136000      0.0000000E+00
   2.148000      0.0000000E+00
   2.160000      0.0000000E+00
   2.172000      0.0000000E+00
   2.184000      0.0000000E+00
   2.196000      0.0000000E+00
   2.208000      0.0000000E+00
   2.220000      0.0000000E+00
   2.232000      0.0000000E+00
   2.244000      0.0000000E+00
   2.256000      0.0000000E+00
   2.268000      0.0000000E+00
   2.280000      0.0000000E+00
   2.292000      0.0000000E+00
   2.304000      0.0000000E+00
   2.316000      0.0000000E+00
   2.328000      0.0000000E+00
   2.340000      0.0000000E+00
   2.352000      0.0000000E+00
   2.364000      0.0000000E+00
   2.376000      0.0000000E+00
   2.388000      0.0000000E+00
   2.400000      0.0000000E+00
   2.412000      0.0000000E+00
   2.424000      0.0000000E+00
   2.436000      0.0000000E+00
   2.448000      0.0000000E+00
   2.460000      0.0000000E+00
   2.472000      0.0000000E+00
   2.484000      0.0000000E+00
   2.496000      0.0000000E+00
   2.508000      0.0000000E+00
   2.520000      0.0000000E+00
   2.532000      0.0000000E+00
   2.544000      0.0000000E+00
   2.556000      0.0000000E+00
   2.568000      0.0000000E+00
   2.580000      0.0000000E+00
   2.592000      0.0000000E+00
   2.604000      0.0000000E+00
   2.616000      0.0000000E+00
   2.628000      0.0000000E+00
   2.640000      0.0000000E+00
   2.652000      0.0000000E+00
   2.664000      0.0000000E+00
   2.676000      0.0000000E+00
   2.688000      0.0000000E+00
   2.700000      0.0000000E+00
   2.712000      0.0000000E+00
   2.724000      0.0000000E+00
   2.736000      0.0000000E+00
   2.748000      0.0000000E+00
   2.760000      0.0000000E+00
   2.772000      0.0000000E+00
   2.784000      0.0000000E+00
   2.796000      0.0000000E+00
   2.808000      0.0000000E+00
   2.820000      0.0000000E+00
   2.832000      0.0000000E+00
   2.844000      0.0000000E+00
   2.856000      0.0000000E+00
   2.868000      0.0000000E+00
   2.880000      0.0000000E+00
   2.892000      0.0000000E+00
   2.904000      0.0000000E+00
   2.916000      0.0000000E+00
   2.928000      0.0000000E+00
   2.940000      0.0000000E+00
   2.952000      0.0000000E+00
   2.964000      0.0000000E+00
   2.976000      0.0000000E+00
   2.988000      0.0000000E+00
   3.000000      0.0000000E+00
   3.012000      0.0000000E+00
   3.024000      0.0000000E+00
   3.036000      0.0000000E+00
   3.048000      0.0000000E+00
   3.060000      0.0000000E+00
   3.072000      0.0000000E+00
   3.084000      0.0000000E+00
   3.096000      0.0000000E+00
   3.108000      0.0000000E+00
   3.120000      0.0000000E+00
   3.132000      0.0000000E+00
   3.144000      0.0000000E+00
   3.156000      0.0000000E+00
   3.168000      0.0000000E+00
   3.180000      0.0000000E+00
   3.192000      0.0000000E+00
   3.204000      0.0000000E+00
   3.216000      0.0000000E+00
   3.228000      0.0000000E+00
   3.240000      0.0000000E+00
   3.252000      0.0000000E+00
   3.264000      0.0000000E+00
   3.276000      0.0000000E+00
   3.288000      0.0000000E+00
   3.300000      0.0000000E+00
   3.312000      0.0000000E+00
   3.324000      0.0000000E+00
   3.336000      0.0000000E+00
   3.348000      0.0000000E+00
   3.360000      0.0000000E+00
   3.372000      0.0000000E+00
   3.384000      0.0000000E+00
   3.396000      0.0000000E+00
   3.408000      0.0000000E+00
   3.420000      0.0000000E+00
   3.432000      0.0000000E+00
   3.444000      0.0000000E+00
   3.456000      0.0000000E+00
   3.468000      0.0000000E+00
   3.480000      0.0000000E+00
   3.492000      0.0000000E+00
   3.504000      0.0000000E+00
   3.516000      0.0000000E+00
   3.528000      0.0000000E+00
   3.540000      0.0000000E+00
   3.552000      0.0000000E+00
   3.564000      0.0000000E+00
   3.576000      0.0000000E+00
   3.588000      0.0000000E+00
   3.600000      0.0000000E+00
   3.612000      0.0000000E+00
   3.624000      0.0000000E+00
   3.636000      0.0000000E+00
   3.648000      0.0000000E+00
   3.660000      0.0000000E+00
   3.672000      0.0000000E+00
   3.684000      0.0000000E+00
   3.696000      0.0000000E+00
   3.708000      0.0000000E+00
   3.720000      0.0000000E+00
   3.732000      0.0000000E+00
   3.744000      0.0000000E+00
   3.756000      0.0000000E+00
   3.768000      0.0000000E+00
   3.780000      0.0000000E+00
   3.792000      0.0000000E+00
   3.804000      0.0000000E+00
   3.816000      0.0000000E+00
   3.828000      0.0000000E+00
   3.840000      0.0000000E+00
   3.852000      0.0000000E+00
   3.864000      0.0000000E+00
   3.876000      0.0000000E+00
   3.888000      0.0000000E+00
   3.900000      0.0000000E+00
   3.912000      0.0000000E+00
   3.924000      0.0000000E+00
   3.936000      0.0000000E+00
   3.948000      0.0000000E+00
   3.960000      0.0000000E+00
   3.972000      0.0000000E+00
   3.984000      0.0000000E+00
   3.996000      0.0000000E+00
   4.008000      0.0000000E+00
   4.020000      0.0000000E+00
   4.032000      0.0000000E+00
   4.044000      0.0000000E+00
   4.056000      0.0000000E+00
   4.068000      0.0000000E+00
   4.080000      0.0000000E+00
   4.092000      0.0000000E+00
   4.104000      0.0000000E+00
   4.116000      0.0000000E+00
   4.128000      0.0000000E+00
   4.140000      0.0000000E+00
   4.152000      0.0000000E+00
   4.164000      0.0000000E+00
   4.176000      0.0000000E+00
   4.188000      0.0000000E+00
   4.200000      0.0000000E+00
   4.212000      0.0000000E+00
   4.224000      0.0000000E+00
   4.236000      0.0000000E+00
   4.248000      0.0000000E+00
   4.260000      0.0000000E+00
   4.272000      0.0000000E+00
   4.284000      0.0000000E+00
   4.296000      0.0000000E+00
   4.308000      0.0000000E+00
   4.320000      0.0000000E+00
   4.332000      0.0000000E+00
   4.344000      0.0000000E+00
   4.356000      0.0000000E+00
   4.368000      0.0000000E+00
   4.380000      0.0000000E+00
   4.392000      0.0000000E+00
   4.404000      0.0000000E+00
   4.416000      0.0000000E+00
   4.428000      0.0000000E+00
   4.440000      0.0000000E+00
   4.452000      0.0000000E+00
   4.464000      0.0000000E+00
   4.476000      0.0000000E+00
   4.488000      0.0000000E+00
   4.500000      0.0000000E+00
   4.512000      0.0000000E+00
   4.524000      0.0000000E+00
   4.536000      0.0000000E+00
   4.548000      0.0000000E+00
   4.560000      0.0000000E+00
   4.572000      0.0000000E+00
   4.584000      0.0000000E+00
   4.596000      0.0000000E+00
   4.608000      0.0000000E+00
   4.620000      0.0000000E+00
   4.632000      0.0000000E+00
   4.644000      0.0000000E+00
   4.656000      0.0000000E+00
   4.668000      0.0000000E+00
   4.680000      0.0000000E+00
   4.692000      0.0000000E+00
   4.704000      0.0000000E+00
   4.716000      0.0000000E+00
   4.728000      0.0000000E+00
   4.740000      0.0000000E+00
   4.752000      0.0000000E+00
   4.764000      0.0000000E+00
   4.776000      0.0000000E+00
   4.788000      0.0000000E+00
   4.800000      0.0000000E+00
   4.812000      0.0000000E+00
   4.824000      0.0000000E+00
   4.836000      0.0000000E+00
   4.848000      0.0000000E+00
   4.860000      0.0000000E+00
   4.872000      0.0000000E+00
   4.884000      0.0000000E+00
   4.896000      0.0000000E+00
   4.908000      0.0000000E+00
   4.920000      0.0000000E+00
   4.932000      0.0000000E+00
   4.944000      0.0000000E+00
   4.956000      0.0000000E+00
   4.968000      0.0000000E+00
   4.980000      0.0000000E+00
   4.992000      0.0000000E+00
   5.004000      0.0000000E+00
   5.016000      0.0000000E+00
   5.028000      0.0000000E+00
   5.040000      0.0000000E+00
   5.052000      0.0000000E+00
   5.064000      0.0000000E+00
   5.076000      0.0000000E+00
   5.088000      0.0000000E+00
   5.100000      0.0000000E+00
   5.112000      0.0000000E+00
   5.124000      0.0000000E+00
   5.136000      0.0000000E+00
   5.148000      0.0000000E+00
   5.160000      0.0000000E+00
   5.172000      0.0000000E+00
   5.184000      0.0000000E+00
   5.196000      0.0000000E+00
   5.208000      0.0000000E+00
   5.220000      0.0000000E+00
   5.232000      0.0000000E+00
   5.244000      0.0000000E+00
   5.256000      0.0000000E+00
   5.268000      0.0000000E+00
   5.280000      0.0000000E+00
   5.292000      0.0000000E+00
   5.304000      0.0000000E+00
   5.316000      0.0000000E+00
   5.328000      0.0000000E+00
   5.340000      0.0000000E+00
   5.352000      0.0000000E+00
   5.364000      0.0000000E+00
   5.376000      0.0000000E+00
   5.388000      0.0000000E+00
   5.400000      0.0000000E+00
   5.412000      0.0000000E+00
   5.424000      0.0000000E+00
   5.436000      0.0000000E+00
   5.448000      0.0000000E+00
   5.460000      0.0000000E+00
   5.472000      0.0000000E+00
   5.484000      0.0000000E+00
   5.496000      0.0000000E+00
   5.508000      0.0000000E+00
   5.520000      0.0000000E+00
   5.532000      0.0000000E+00
   5.544000      0.0000000E+00
   5.556000      0.0000000E+00
   5.568000      0.0000000E+00
   5.580000      0.0000000E+00
   5.592000      0.0000000E+00
   5.604000      0.0000000E+00
   5.616000      0.0000000E+00
   5.628000      0.0000000E+00
   5.640000      0.0000000E+00
   5.652000      0.0000000E+00
   5.664000      0.0000000E+00
   5.676000      0.0000000E+00
   5.688000      0.0000000E+00
   5.700000      0.0000000E+00
   5.712000      0.0000000E+00
   5.724000      0.0000000E+00
   5.736000      0.0000000E+00
   5.748000      0.0000000E+00
   5.760000      0.0000000E+00
   5.772000      0.0000000E+00
   5.784000      0.0000000E+00
   5.796000      0.0000000E+00
   5.808000      0.0000000E+00
   5.820000      0.0000000E+00
   5.832000      0.0000000E+00
   5.844000      0.0000000E+00
   5.856000      0.0000000E+00
   5.868000      0.0000000E+00
   5.880000      0.0000000E+00
   5.892000      0.0000000E+00
   5.904000      0.0000000E+00
   5.916000      0.0000000E+00
   5.928000      0.0000000E+00
   5.940000      0.0000000E+00
   5.952000      0.0000000E+00
   5.964000      0.0000000E+00
   5.976000      0.0000000E+00
   5.988000      0.0000000E+00
   6.000000      0.0000000E+00
   6.012000      0.0000000E+00
   6.024000      0.0000000E+00
   6.036000      0.0000000E+00
   6.048000      0.0000000E+00
   6.060000      0.0000000E+00
   6.072000      0.0000000E+00
   6.084000      0.0000000E+00
   6.096000      0.0000000E+00
   6.108000      0.0000000E+00
   6.120000      0.0000000E+00
   6.132000      0.0000000E+00
   6.144000      0.0000000E+00
   6.156000      0.0000000E+00
   6.168000      0.0000000E+00
   6.180000      0.0000000E+00
   6.192000      0.0000000E+00
   6.204000      0.0000000E+00
   6.216000      0.0000000E+00
   6.228000      0.0000000E+00
   6.240000      0.0000000E+00
   6.252000      0.0000000E+00
   6.264000      0.0000000E+00
   6.276000      0.0000000E+00
   6.288000      0.0000000E+00
   6.300000      0.0000000E+00
   6.312000      0.0000000E+00
   6.324000      0.0000000E+00
   6.336000      0.0000000E+00
   6.348000      0.0000000E+00
   6.360000      0.0000000E+00
   6.372000      0.0000000E+00
   6.384000      0.0000000E+00
   6.396000      0.0000000E+00
   6.408000      0.0000000E+00
   6.420000      0.0000000E+00
   6.432000      0.0000000E+00
   6.444000      0.0000000E+00
   6.456000      0.0000000E+00
   6.468000      0.0000000E+00
   6.480000      0.0000000E+00
   6.492000      0.0000000E+00
   6.504000      0.0000000E+00
   6.516000      0.0000000E+00
   6.528000      0.0000000E+00
   6.540000      0.0000000E+00
   6.552000      0.0000000E+00
   6.564000      0.0000000E+00
   6.576000      0.0000000E+00
   6.588000      0.0000000E+00
   6.600000      0.0000000E+00
   6.612000      0.0000000E+00
   6.624000      0.0000000E+00
   6.636000      0.0000000E+00
   6.648000      0.0000000E+00
   6.660000      0.0000000E+00
   6.672000      0.0000000E+00
   6.684000      0.0000000E+00
   6.696000      0.0000000E+00
   6.708000      0.0000000E+00
   6.720000      0.0000000E+00
   6.732000      0.0000000E+00
   6.744000      0.0000000E+00
   6.756000      0.0000000E+00
   6.768000      0.0000000E+00
   6.780000      0.0000000E+00
   6.792000      0.0000000E+00
   6.804000      0.0000000E+00
   6.816000      0.0000000E+00
   6.828000      0.0000000E+00
   6.840000      0.0000000E+00
   6.852000      0.0000000E+00
   6.864000      0.0000000E+00
   6.876000      0.0000000E+00
   6.888000      0.0000000E+00
   6.900000      0.0000000E+00
   6.912000      0.0000000E+00
   6.924000      0.0000000E+00
   6.936000      1.3191286E-38
   6.948000      1.2741745E-38
   6.960000      0.0000000E+00
   6.972000      0.0000000E+00
   6.984000      0.0000000E+00
   6.996000      0.0000000E+00
   7.008000      0.0000000E+00
   7.020000      0.0000000E+00
   7.032000      3.8129477E-38
   7.044000      4.4030852E-38
   7.056000      1.6307416E-38
   7.068000     -1.7492238E-38
   7.080000     -5.2357112E-38
   7.092000     -8.4346772E-38
   7.104000     -5.7117705E-38
   7.116000      0.0000000E+00
   7.128000      6.5531655E-38
   7.140000      1.0743559E-37
   7.152000      1.0134407E-37
   7.164000      1.9436591E-38
   7.176000     -1.0447054E-37
   7.188000     -2.3357571E-37
   7.200000     -3.1264789E-37
   7.212000     -3.1524245E-37
   7.224000     -2.2104501E-37
   7.236000     -7.6152153E-38
   7.248000      7.5757609E-38
   7.260000      1.6206304E-37
   7.272000      1.5156584E-37
   7.284000      4.8554560E-38
   7.296000     -8.0235945E-38
   7.308000     -2.1367068E-37
   7.320000     -2.6844749E-37
   7.332000     -2.9095963E-37
   7.344000     -2.8766223E-37
   7.356000     -2.7200508E-37
   7.368000     -3.3904981E-37
   7.380000     -5.5299829E-37
   7.392000     -7.4738736E-37
   7.404000     -8.9636233E-37
   7.416000     -9.8424280E-37
   7.428000     -9.0711256E-37
   7.440000     -7.4396460E-37
   7.452000     -5.4968504E-37
   7.464000     -4.2409099E-37
   7.476000     -4.0348737E-37
   7.488000     -5.2229542E-37
   7.500000     -7.6443230E-37
   7.512000     -1.0468784E-36
   7.524000     -1.4173991E-36
   7.536000     -1.7440463E-36
   7.548000     -1.9582906E-36
   7.560000     -1.6943005E-36
   7.572000     -7.6712387E-37
   7.584000      8.8383692E-37
   7.596000      2.9864220E-36
   7.608000      5.5546815E-36
   7.620000      8.1822148E-36
   7.632000      1.0571970E-35
   7.644000      1.2204681E-35
   7.656000      1.2696904E-35
   7.668000      1.1585663E-35
   7.680000      8.5231448E-36
   7.692000      3.4137751E-36
   7.704000     -3.4227620E-36
   7.716000     -1.1383223E-35
   7.728000     -1.9543226E-35
   7.740000     -2.6327707E-35
   7.752000     -3.0351132E-35
   7.764000     -3.0160611E-35
   7.776000     -2.4581576E-35
   7.788000     -1.3307207E-35
   7.800000      3.0686921E-36
   7.812000      2.3123366E-35
   7.824000      4.4372874E-35
   7.836000      6.3986870E-35
   7.848000      7.8851983E-35
   7.860000      8.6027280E-35
   7.872000      8.3220982E-35
   7.884000      6.9236112E-35
   7.896000      4.3965612E-35
   7.908000      8.6109546E-36
   7.920000     -3.4259714E-35
   7.932000     -8.0865327E-35
   7.944000     -1.2651656E-34
   7.956000     -1.6611605E-34
   7.968000     -1.9442332E-34
   7.980000     -2.0660381E-34
   7.992000     -1.9877979E-34
   8.004000     -1.6815580E-34
   8.016000     -1.1373547E-34
   8.028000     -3.6411064E-35
   8.040000      6.0736823E-35
   8.052000      1.7231611E-34
   8.064000      2.9062403E-34
   8.076000      4.0582230E-34
   8.088000      5.0635990E-34
   8.100000      5.7956055E-34
   8.112000      6.1248233E-34
   8.124000      5.9296058E-34
   8.136000      5.1083219E-34
   8.148000      3.5922584E-34
   8.160000      1.3592595E-34
   8.172000     -1.5529896E-34
   8.184000     -5.0358307E-34
   8.196000     -8.9017175E-34
   8.208000     -1.2881031E-33
   8.220000     -1.6626062E-33
   8.232000     -1.9723757E-33
   8.244000     -2.1718458E-33
   8.256000     -2.2145065E-33
   8.268000     -2.0571792E-33
   8.280000     -1.6650271E-33
   8.292000     -1.0169711E-33
   8.304000     -1.1104416E-34
   8.316000      1.0308549E-33
   8.328000      2.3593793E-33
   8.340000      3.7959133E-33
   8.352000      5.2330599E-33
   8.364000      6.5378711E-33
   8.376000      7.5581495E-33
   8.388000      8.1319303E-33
   8.400000      8.1000076E-33
   8.412000      7.3210853E-33
   8.424000      5.6887634E-33
   8.436000      3.1492665E-33
   8.448000     -2.8156015E-34
   8.460000     -4.5036829E-33
   8.472000     -9.3226297E-33
   8.484000     -1.4445449E-32
   8.496000     -1.9484631E-32
   8.508000     -2.3971386E-32
   8.520000     -2.7379135E-32
   8.532000     -2.9157332E-32
   8.544000     -2.8774903E-32
   8.556000     -2.5771476E-32
   8.568000     -1.9813704E-32
   8.580000     -1.0752763E-32
   8.592000      1.3216731E-33
   8.604000      1.6036470E-32
   8.616000      3.2704936E-32
   8.628000      5.0317447E-32
   8.640000      6.7558117E-32
   8.652000      8.2851710E-32
   8.664000      9.4443272E-32
   8.676000      1.0051067E-31
   8.688000      9.9307397E-32
   8.700000      8.9329654E-32
   8.712000      6.9498664E-32
   8.724000      3.9345462E-32
   8.736000     -8.1704627E-34
   8.748000     -4.9752399E-32
   8.760000     -1.0520778E-31
   8.772000     -1.6388839E-31
   8.784000     -2.2151547E-31
   8.796000     -2.7298045E-31
   8.808000     -3.1260229E-31
   8.820000     -3.3448830E-31
   8.832000     -3.3298826E-31
   8.844000     -3.0322406E-31
   8.856000     -2.4166471E-31
   8.868000     -1.4670763E-31
   8.880000     -1.9218398E-32
   8.892000      1.3702535E-31
   8.904000      3.1504332E-31
   8.916000      5.0457117E-31
   8.928000      6.9223804E-31
   8.940000      8.6204182E-31
   8.952000      9.9614222E-31
   8.964000      1.0759709E-30
   8.976000      1.0836298E-30
   8.988000      1.0035191E-30
   9.000000      8.2410571E-31
   9.012000      5.3971229E-31
   9.024000      1.5218196E-31
   9.036000     -3.2774565E-31
   9.048000     -8.7951907E-31
   9.060000     -1.4724898E-30
   9.072000     -2.0664068E-30
   9.084000     -2.6128038E-30
   9.096000     -3.0573476E-30
   9.108000     -3.3431326E-30
   9.120000     -3.4148532E-30
   9.132000     -3.2236614E-30
   9.144000     -2.7324660E-30
   9.156000     -1.9213019E-30
   9.168000     -7.9235598E-31
   9.180000      6.2584358E-31
   9.192000      2.2755754E-30
   9.204000      4.0689118E-30
   9.216000      5.8889822E-30
   9.228000      7.5938537E-30
   9.240000      9.0232165E-30
   9.252000      1.0007862E-29
   9.264000      1.0381734E-29
   9.276000      9.9960240E-30
   9.288000      8.7345911E-30
   9.300000      6.5296676E-30
   9.312000      3.3766307E-30
   9.324000     -6.5354326E-31
   9.336000     -5.4055994E-30
   9.348000     -1.0636530E-29
   9.360000     -1.6018564E-29
   9.372000     -2.1149606E-29
   9.384000     -2.5571673E-29
   9.396000     -2.8797326E-29
   9.408000     -3.0343439E-29
   9.420000     -2.9770974E-29
   9.432000     -2.6728570E-29
   9.444000     -2.0997188E-29
   9.456000     -1.2532361E-29
   9.468000     -1.5001559E-30
   9.480000      1.1697193E-29
   9.492000      2.6409991E-29
   9.504000      4.1747670E-29
   9.516000      5.6605988E-29
   9.528000      6.9716431E-29
   9.540000      7.9717882E-29
   9.552000      8.5248779E-29
   9.564000      8.5056084E-29
   9.576000      7.8115339E-29
   9.588000      6.3754029E-29
   9.600000      4.1769006E-29
   9.612000      1.2527405E-29
   9.624000     -2.2960067E-29
   9.636000     -6.3004306E-29
   9.648000     -1.0525112E-28
   9.660000     -1.4675023E-28
   9.672000     -1.8408427E-28
   9.684000     -2.1355816E-28
   9.696000     -2.3144435E-28
   9.708000     -2.3427387E-28
   9.720000     -2.1915860E-28
   9.732000     -1.8412345E-28
   9.744000     -1.2842457E-28
   9.756000     -5.2824858E-29
   9.768000      4.0202208E-29
   9.780000      1.4636960E-28
   9.792000      2.5960029E-28
   9.804000      3.7219720E-28
   9.816000      4.7517203E-28
   9.828000      5.5873375E-28
   9.840000      6.1292470E-28
   9.852000      6.2838120E-28
   9.864000      5.9717666E-28
   9.876000      5.1369655E-28
   9.888000      3.7547969E-28
   9.900000      1.8395428E-28
   9.912000     -5.5008778E-29
   9.924000     -3.3079948E-28
   9.936000     -6.2809679E-28
   9.948000     -9.2727335E-28
   9.960000     -1.2052091E-27
   9.972000     -1.4365181E-27
   9.984000     -1.5951601E-27
   9.996000     -1.6563764E-27
   10.00800     -1.5988480E-27
   10.02000     -1.4069467E-27
   10.03200     -1.0729143E-27
   10.04400     -5.9878804E-28
   10.05600      2.1219563E-30
   10.06800      7.0439376E-28
   10.08000      1.4704637E-27
   10.09200      2.2515417E-27
   10.10400      2.9895552E-27
   10.11600      3.6201382E-27
   10.12800      4.0766005E-27
   10.14000      4.2947309E-27
   10.15200      4.2181899E-27
   10.16400      3.8041692E-27
   10.17600      3.0289202E-27
   10.18800      1.8926973E-27
   10.20000      4.2364209E-28
   10.21200     -1.3198712E-27
   10.22400     -3.2488508E-27
   10.23600     -5.2456122E-27
   10.24800     -7.1682234E-27
   10.26000     -8.8575398E-27
   10.27200     -1.0146682E-26
   10.28400     -1.0872615E-26
   10.29600     -1.0889273E-26
   10.30800     -1.0081454E-26
   10.32000     -8.3785302E-27
   10.33200     -5.7669033E-27
   10.34400     -2.3000478E-27
   10.35600      1.8950165E-27
   10.36800      6.6158544E-27
   10.38000      1.1588215E-26
   10.39200      1.6475664E-26
   10.40400      2.0895452E-26
   10.41600      2.4440351E-26
   10.42800      2.6705715E-26
   10.44000      2.7320496E-26
   10.45200      2.5980487E-26
   10.46400      2.2481570E-26
   10.47600      1.6750460E-26
   10.48800      8.8702679E-27
   10.50000     -9.0184761E-28
   10.51200     -1.2127461E-26
   10.52400     -2.4192176E-26
   10.53600     -3.6324915E-26
   10.54800     -4.7631837E-26
   10.56000     -5.7144462E-26
   10.57200     -6.3880563E-26
   10.58400     -6.6915089E-26
   10.59600     -6.5457317E-26
   10.60800     -5.8929438E-26
   10.62000     -4.7040857E-26
   10.63200     -2.9852216E-26
   10.64400     -7.8227869E-27
   10.65600      1.8164527E-26
   10.66800      4.6805687E-26
   10.68000      7.6409178E-26
   10.69200      1.0496284E-25
   10.70400      1.3023343E-25
   10.71600      1.4989663E-25
   10.72800      1.6169167E-25
   10.74000      1.6359347E-25
   10.75200      1.5399150E-25
   10.76400      1.3186407E-25
   10.77600      9.6934230E-26
   10.78800      4.9794259E-26
   10.80000     -8.0148761E-27
   10.81200     -7.3980448E-26
   10.82400     -1.4466045E-25
   10.83600     -2.1579712E-25
   10.84800     -2.8250270E-25
   10.86000     -3.3951383E-25
   10.87200     -3.8150482E-25
   10.88400     -4.0344629E-25
   10.89600     -4.0098884E-25
   10.90800     -3.7084893E-25
   10.92000     -3.1117035E-25
   10.93200     -2.2183306E-25
   10.94400     -1.0468300E-25
   10.95600      3.6343207E-26
   10.96800      1.9521863E-25
   10.98000      3.6396575E-25
   10.99200      5.3294190E-25
   11.00400      6.9126698E-25
   11.01600      8.2738079E-25
   11.02800      9.2970630E-25
   11.04000      9.8738604E-25
   11.05200      9.9105167E-25
   11.06400      9.3357793E-25
   11.07600      8.1077329E-25
   11.08800      6.2195401E-25
   11.10000      3.7035646E-25
   11.11200      6.3346794E-26
   11.12400     -2.8760303E-25
   11.13600     -6.6718927E-25
   11.14800     -1.0568036E-24
   11.16000     -1.4352993E-24
   11.17200     -1.7799658E-24
   11.18400     -2.0676689E-24
   11.19600     -2.2760939E-24
   11.20800     -2.3850310E-24
   11.22000     -2.3776240E-24
   11.23200     -2.2415143E-24
   11.24400     -1.9698088E-24
   11.25600     -1.5618174E-24
   11.26800     -1.0235118E-24
   11.28000     -3.6768274E-25
   11.29200      3.8621710E-25
   11.30400      1.2125278E-24
   11.31600      2.0801116E-24
   11.32800      2.9533091E-24
   11.34000      3.7930728E-24
   11.35200      4.5582221E-24
   11.36400      5.2067628E-24
   11.37600      5.6972296E-24
   11.38800      5.9900200E-24
   11.40000      6.0487089E-24
   11.41200      5.8413486E-24
   11.42400      5.3417807E-24
   11.43600      4.5309950E-24
   11.44800      3.3985859E-24
   11.46000      1.9443282E-24
   11.47200      1.7990838E-25