 -0.1200000      0.0000000E+00
 -0.1080000      0.0000000E+00
 -9.6000001E-02  0.0000000E+00
 -8.3999999E-02  0.0000000E+00
 -7.1999997E-02  0.0000000E+00
 -5.9999999E-02  0.0000000E+00
 -4.8000000E-02  0.0000000E+00
 -3.5999998E-02  0.0000000E+00
 -2.4000000E-02  0.0000000E+00
 -1.2000000E-02  0.0000000E+00
  6.9388939E-18  0.0000000E+00
  1.2000000E-02  0.0000000E+00
  2.4000000E-02  0.0000000E+00
  3.5999998E-02  0.0000000E+00
  4.8000000E-02  0.0000000E+00
  5.9999999E-02  0.0000000E+00
  7.1999997E-02  0.0000000E+00
  8.3999999E-02  0.0000000E+00
  9.6000001E-02  0.0000000E+00
  0.1080000      0.0000000E+00
  0.1200000      0.0000000E+00
  0.1320000      0.0000000E+00
  0.1440000      0.0000000E+00
  0.1560000      0.0000000E+00
  0.1680000      0.0000000E+00
  0.1800000      0.0000000E+00
  0.1920000      0.0000000E+00
  0.2040000      0.0000000E+00
  0.2160000      0.0000000E+00
  0.2280000      0.0000000E+00
  0.2400000      0.0000000E+00
  0.2520000      0.0000000E+00
  0.2640000      0.0000000E+00
  0.2760000      0.0000000E+00
  0.2880000      0.0000000E+00
  0.3000000      0.0000000E+00
  0.3120000      0.0000000E+00
  0.3240000      0.0000000E+00
  0.3360000      0.0000000E+00
  0.3480000      0.0000000E+00
  0.3600000      0.0000000E+00
  0.3720000      0.0000000E+00
  0.3840000      0.0000000E+00
  0.3960000      0.0000000E+00
  0.4080000      0.0000000E+00
  0.4200000      0.0000000E+00
  0.4320000      0.0000000E+00
  0.4440000      0.0000000E+00
  0.4560000      0.0000000E+00
  0.4680000      0.0000000E+00
  0.4800000      0.0000000E+00
  0.4920000      0.0000000E+00
  0.5040000      0.0000000E+00
  0.5160000      0.0000000E+00
  0.5280000      0.0000000E+00
  0.5400000      0.0000000E+00
  0.5520000      0.0000000E+00
  0.5640000      0.0000000E+00
  0.5760000      0.0000000E+00
  0.5880000      0.0000000E+00
  0.6000000      0.0000000E+00
  0.6120000      0.0000000E+00
  0.6240000      0.0000000E+00
  0.6360000      0.0000000E+00
  0.6480000      0.0000000E+00
  0.6600000      0.0000000E+00
  0.6720000      0.0000000E+00
  0.6840000      0.0000000E+00
  0.6960000      0.0000000E+00
  0.7080000      0.0000000E+00
  0.7200000      0.0000000E+00
  0.7320000      0.0000000E+00
  0.7440000      0.0000000E+00
  0.7560000      0.0000000E+00
  0.7680000      0.0000000E+00
  0.7800000      0.0000000E+00
  0.7920000      0.0000000E+00
  0.8040000      0.0000000E+00
  0.8160000      0.0000000E+00
  0.8280000      0.0000000E+00
  0.8400000      0.0000000E+00
  0.8520000      0.0000000E+00
  0.8640000      0.0000000E+00
  0.8760000      0.0000000E+00
  0.8880000      0.0000000E+00
  0.9000000      0.0000000E+00
  0.9120000      0.0000000E+00
  0.9240000      0.0000000E+00
  0.9360000      0.0000000E+00
  0.9480000      0.0000000E+00
  0.9600000      0.0000000E+00
  0.9720000      0.0000000E+00
  0.9840000      0.0000000E+00
  0.9960000      0.0000000E+00
   1.008000      0.0000000E+00
   1.020000      0.0000000E+00
   1.032000      0.0000000E+00
   1.044000      0.0000000E+00
   1.056000      0.0000000E+00
   1.068000      0.0000000E+00
   1.080000      0.0000000E+00
   1.092000      0.0000000E+00
   1.104000      0.0000000E+00
   1.116000      0.0000000E+00
   1.128000      0.0000000E+00
   1.140000      0.0000000E+00
   1.152000      0.0000000E+00
   1.164000      0.0000000E+00
   1.176000      0.0000000E+00
   1.188000      0.0000000E+00
   1.200000      0.0000000E+00
   1.212000      0.0000000E+00
   1.224000      0.0000000E+00
   1.236000      0.0000000E+00
   1.248000      0.0000000E+00
   1.260000      0.0000000E+00
   1.272000      0.0000000E+00
   1.284000      0.0000000E+00
   1.296000      0.0000000E+00
   1.308000      0.0000000E+00
   1.320000      0.0000000E+00
   1.332000      0.0000000E+00
   1.344000      0.0000000E+00
   1.356000      0.0000000E+00
   1.368000      0.0000000E+00
   1.380000      0.0000000E+00
   1.392000      0.0000000E+00
   1.404000      0.0000000E+00
   1.416000      0.0000000E+00
   1.428000      0.0000000E+00
   1.440000      0.0000000E+00
   1.452000      0.0000000E+00
   1.464000      0.0000000E+00
   1.476000      0.0000000E+00
   1.488000      0.0000000E+00
   1.500000      0.0000000E+00
   1.512000      0.0000000E+00
   1.524000      0.0000000E+00
   1.536000      0.0000000E+00
   1.548000      0.0000000E+00
   1.560000      0.0000000E+00
   1.572000      0.0000000E+00
   1.584000      0.0000000E+00
   1.596000      0.0000000E+00
   1.608000      0.0000000E+00
   1.620000      0.0000000E+00
   1.632000      0.0000000E+00
   1.644000      0.0000000E+00
   1.656000      0.0000000E+00
   1.668000      0.0000000E+00
   1.680000      0.0000000E+00
   1.692000      0.0000000E+00
   1.704000      0.0000000E+00
   1.716000      0.0000000E+00
   1.728000      0.0000000E+00
   1.740000      0.0000000E+00
   1.752000      0.0000000E+00
   1.764000      0.0000000E+00
   1.776000      0.0000000E+00
   1.788000      0.0000000E+00
   1.800000      0.0000000E+00
   1.812000      0.0000000E+00
   1.824000      0.0000000E+00
   1.836000      0.0000000E+00
   1.848000      0.0000000E+00
   1.860000      0.0000000E+00
   1.872000      0.0000000E+00
   1.884000      0.0000000E+00
   1.896000      0.0000000E+00
   1.908000      0.0000000E+00
   1.920000      0.0000000E+00
   1.932000      0.0000000E+00
   1.944000      0.0000000E+00
   1.956000      0.0000000E+00
   1.968000      0.0000000E+00
   1.980000      0.0000000E+00
   1.992000      0.0000000E+00
   2.004000      0.0000000E+00
   2.016000      0.0000000E+00
   2.028000      0.0000000E+00
   2.040000      0.0000000E+00
   2.052000      0.0000000E+00
   2.064000      0.0000000E+00
   2.076000      0.0000000E+00
   2.088000      0.0000000E+00
   2.100000      0.0000000E+00
   2.112000      0.0000000E+00
   2.124000      0.0000000E+00
   2.136000      0.0000000E+00
   2.148000      0.0000000E+00
   2.160000      0.0000000E+00
   2.172000      0.0000000E+00
   2.184000      0.0000000E+00
   2.196000      0.0000000E+00
   2.208000      0.0000000E+00
   2.220000      0.0000000E+00
   2.232000      0.0000000E+00
   2.244000      0.0000000E+00
   2.256000      0.0000000E+00
   2.268000      0.0000000E+00
   2.280000      0.0000000E+00
   2.292000      0.0000000E+00
   2.304000      0.0000000E+00
   2.316000      0.0000000E+00
   2.328000      0.0000000E+00
   2.340000      0.0000000E+00
   2.352000      0.0000000E+00
   2.364000      0.0000000E+00
   2.376000      0.0000000E+00
   2.388000      0.0000000E+00
   2.400000      0.0000000E+00
   2.412000      0.0000000E+00
   2.424000      0.0000000E+00
   2.436000      0.0000000E+00
   2.448000      0.0000000E+00
   2.460000      0.0000000E+00
   2.472000      0.0000000E+00
   2.484000      0.0000000E+00
   2.496000      0.0000000E+00
   2.508000      0.0000000E+00
   2.520000      0.0000000E+00
   2.532000      0.0000000E+00
   2.544000      0.0000000E+00
   2.556000      0.0000000E+00
   2.568000      0.0000000E+00
   2.580000      0.0000000E+00
   2.592000      0.0000000E+00
   2.604000      0.0000000E+00
   2.616000      0.0000000E+00
   2.628000      0.0000000E+00
   2.640000      0.0000000E+00
   2.652000      0.0000000E+00
   2.664000      0.0000000E+00
   2.676000      0.0000000E+00
   2.688000      0.0000000E+00
   2.700000      0.0000000E+00
   2.712000      0.0000000E+00
   2.724000      0.0000000E+00
   2.736000      0.0000000E+00
   2.748000      0.0000000E+00
   2.760000      0.0000000E+00
   2.772000      0.0000000E+00
   2.784000      0.0000000E+00
   2.796000      0.0000000E+00
   2.808000      0.0000000E+00
   2.820000      0.0000000E+00
   2.832000      0.0000000E+00
   2.844000      0.0000000E+00
   2.856000      0.0000000E+00
   2.868000      0.0000000E+00
   2.880000      0.0000000E+00
   2.892000      0.0000000E+00
   2.904000      0.0000000E+00
   2.916000      0.0000000E+00
   2.928000      0.0000000E+00
   2.940000      0.0000000E+00
   2.952000      0.0000000E+00
   2.964000      0.0000000E+00
   2.976000      0.0000000E+00
   2.988000      0.0000000E+00
   3.000000      0.0000000E+00
   3.012000      0.0000000E+00
   3.024000      0.0000000E+00
   3.036000      0.0000000E+00
   3.048000      0.0000000E+00
   3.060000      0.0000000E+00
   3.072000      0.0000000E+00
   3.084000      0.0000000E+00
   3.096000      0.0000000E+00
   3.108000      0.0000000E+00
   3.120000      0.0000000E+00
   3.132000      0.0000000E+00
   3.144000      0.0000000E+00
   3.156000      0.0000000E+00
   3.168000      0.0000000E+00
   3.180000      0.0000000E+00
   3.192000      0.0000000E+00
   3.204000      0.0000000E+00
   3.216000      0.0000000E+00
   3.228000      0.0000000E+00
   3.240000      0.0000000E+00
   3.252000      0.0000000E+00
   3.264000      0.0000000E+00
   3.276000      0.0000000E+00
   3.288000      0.0000000E+00
   3.300000      0.0000000E+00
   3.312000      0.0000000E+00
   3.324000      0.0000000E+00
   3.336000      0.0000000E+00
   3.348000      0.0000000E+00
   3.360000      0.0000000E+00
   3.372000      0.0000000E+00
   3.384000      0.0000000E+00
   3.396000      0.0000000E+00
   3.408000      0.0000000E+00
   3.420000      0.0000000E+00
   3.432000      0.0000000E+00
   3.444000      0.0000000E+00
   3.456000      0.0000000E+00
   3.468000      0.0000000E+00
   3.480000      0.0000000E+00
   3.492000      0.0000000E+00
   3.504000      0.0000000E+00
   3.516000      0.0000000E+00
   3.528000      0.0000000E+00
   3.540000      0.0000000E+00
   3.552000      0.0000000E+00
   3.564000      0.0000000E+00
   3.576000      0.0000000E+00
   3.588000      0.0000000E+00
   3.600000      0.0000000E+00
   3.612000      0.0000000E+00
   3.624000      0.0000000E+00
   3.636000      0.0000000E+00
   3.648000      0.0000000E+00
   3.660000      0.0000000E+00
   3.672000      0.0000000E+00
   3.684000      0.0000000E+00
   3.696000      0.0000000E+00
   3.708000      0.0000000E+00
   3.720000      0.0000000E+00
   3.732000      0.0000000E+00
   3.744000      0.0000000E+00
   3.756000      0.0000000E+00
   3.768000      0.0000000E+00
   3.780000      0.0000000E+00
   3.792000      0.0000000E+00
   3.804000      0.0000000E+00
   3.816000      0.0000000E+00
   3.828000      0.0000000E+00
   3.840000      0.0000000E+00
   3.852000      0.0000000E+00
   3.864000      0.0000000E+00
   3.876000      0.0000000E+00
   3.888000      0.0000000E+00
   3.900000      0.0000000E+00
   3.912000      0.0000000E+00
   3.924000      0.0000000E+00
   3.936000      0.0000000E+00
   3.948000      0.0000000E+00
   3.960000      0.0000000E+00
   3.972000      0.0000000E+00
   3.984000      0.0000000E+00
   3.996000      0.0000000E+00
   4.008000      0.0000000E+00
   4.020000      0.0000000E+00
   4.032000      0.0000000E+00
   4.044000      0.0000000E+00
   4.056000      0.0000000E+00
   4.068000      0.0000000E+00
   4.080000      0.0000000E+00
   4.092000      0.0000000E+00
   4.104000      0.0000000E+00
   4.116000      0.0000000E+00
   4.128000      0.0000000E+00
   4.140000      0.0000000E+00
   4.152000      0.0000000E+00
   4.164000      0.0000000E+00
   4.176000      0.0000000E+00
   4.188000      0.0000000E+00
   4.200000      0.0000000E+00
   4.212000      0.0000000E+00
   4.224000      0.0000000E+00
   4.236000      0.0000000E+00
   4.248000      0.0000000E+00
   4.260000      0.0000000E+00
   4.272000      0.0000000E+00
   4.284000      0.0000000E+00
   4.296000      0.0000000E+00
   4.308000      0.0000000E+00
   4.320000      0.0000000E+00
   4.332000      0.0000000E+00
   4.344000      0.0000000E+00
   4.356000      0.0000000E+00
   4.368000      0.0000000E+00
   4.380000      0.0000000E+00
   4.392000      0.0000000E+00
   4.404000      0.0000000E+00
   4.416000      0.0000000E+00
   4.428000      0.0000000E+00
   4.440000      0.0000000E+00
   4.452000      0.0000000E+00
   4.464000      0.0000000E+00
   4.476000      0.0000000E+00
   4.488000      0.0000000E+00
   4.500000      0.0000000E+00
   4.512000      0.0000000E+00
   4.524000      0.0000000E+00
   4.536000     -1.5070751E-38
   4.548000     -2.1187735E-38
   4.560000     -2.6983445E-38
   4.572000     -3.0177133E-38
   4.584000     -3.0570677E-38
   4.596000     -2.4918963E-38
   4.608000     -1.5503595E-38
   4.620000      0.0000000E+00
   4.632000      0.0000000E+00
   4.644000      2.3313761E-38
   4.656000      3.3662499E-38
   4.668000      4.0119593E-38
   4.680000      4.3925068E-38
   4.692000      7.2261083E-38
   4.704000      1.0055966E-37
   4.716000      1.1602036E-37
   4.728000      8.1862522E-38
   4.740000      0.0000000E+00
   4.752000     -1.3100703E-37
   4.764000     -3.0135502E-37
   4.776000     -4.6771042E-37
   4.788000     -5.7683054E-37
   4.800000     -6.1141876E-37
   4.812000     -5.7220671E-37
   4.824000     -4.5736185E-37
   4.836000     -2.9807269E-37
   4.848000     -1.4428855E-37
   4.860000     -4.5064397E-38
   4.872000      0.0000000E+00
   4.884000      6.4861179E-38
   4.896000      2.1851667E-37
   4.908000      3.3021627E-37
   4.920000      3.9638550E-37
   4.932000      3.9491479E-37
   4.944000      3.4632511E-37
   4.956000      2.1994709E-37
   4.968000     -4.4912028E-38
   4.980000     -4.6833614E-37
   4.992000     -9.9054851E-37
   5.004000     -1.4666374E-36
   5.016000     -1.7676905E-36
   5.028000     -1.7949698E-36
   5.040000     -1.4439353E-36
   5.052000     -6.0206952E-37
   5.064000      7.8828146E-37
   5.076000      2.7566908E-36
   5.088000      5.3148681E-36
   5.100000      8.3557129E-36
   5.112000      1.1582605E-35
   5.124000      1.4610838E-35
   5.136000      1.6945084E-35
   5.148000      1.8008276E-35
   5.160000      1.7188734E-35
   5.172000      1.3890163E-35
   5.184000      7.6852305E-36
   5.196000     -1.6837183E-36
   5.208000     -1.4135730E-35
   5.220000     -2.9207080E-35
   5.232000     -4.5910312E-35
   5.244000     -6.2690732E-35
   5.256000     -7.7510708E-35
   5.268000     -8.7877771E-35
   5.280000     -9.1062517E-35
   5.292000     -8.4289890E-35
   5.304000     -6.5095795E-35
   5.316000     -3.1751311E-35
   5.328000      1.6315721E-35
   5.340000      7.8118504E-35
   5.352000      1.5072675E-34
   5.364000      2.2901695E-34
   5.376000      3.0559494E-34
   5.388000      3.7101547E-34
   5.400000      4.1423438E-34
   5.412000      4.2343547E-34
   5.424000      3.8717078E-34
   5.436000      2.9577816E-34
   5.448000      1.4300242E-34
   5.460000     -7.2241670E-35
   5.472000     -3.4425766E-34
   5.484000     -6.5918504E-34
   5.496000     -9.9419418E-34
   5.508000     -1.3174373E-33
   5.520000     -1.5890485E-33
   5.532000     -1.7633200E-33
   5.544000     -1.7921848E-33
   5.556000     -1.6299370E-33
   5.568000     -1.2390143E-33
   5.580000     -5.9651278E-34
   5.592000      2.9912965E-34
   5.604000      1.4219282E-33
   5.616000      2.7134641E-33
   5.628000      4.0802166E-33
   5.640000      5.3940192E-33
   5.652000      6.4964452E-33
   5.664000      7.2077302E-33
   5.676000      7.3404751E-33
   5.688000      6.7179554E-33
   5.700000      5.1962434E-33
   5.712000      2.6887843E-33
   5.724000     -8.0859602E-34
   5.736000     -5.1948501E-33
   5.748000     -1.0246057E-32
   5.760000     -1.5606236E-32
   5.772000     -2.0789852E-32
   5.784000     -2.5198820E-32
   5.796000     -2.8156037E-32
   5.808000     -2.8956234E-32
   5.820000     -2.6933244E-32
   5.832000     -2.1540910E-32
   5.844000     -1.2442552E-32
   5.856000      3.9830841E-34
   5.868000      1.6635177E-32
   5.880000      3.5474700E-32
   5.892000      5.5643195E-32
   5.904000      7.5394991E-32
   5.916000      9.2572378E-32
   5.928000      1.0472415E-31
   5.940000      1.0928516E-31
   5.952000      1.0381387E-31
   5.964000      8.6277677E-32
   5.976000      5.5368423E-32
   5.988000      1.0822782E-32
   6.000000     -4.6284737E-32
   6.012000     -1.1331364E-31
   6.024000     -1.8593422E-31
   6.036000     -2.5814853E-31
   6.048000     -3.2248912E-31
   6.060000     -3.7041959E-31
   6.072000     -3.9294493E-31
   6.084000     -3.8142135E-31
   6.096000     -3.2853034E-31
   6.108000     -2.2935738E-31
   6.120000     -8.2489675E-32
   6.132000      1.0897648E-31
   6.144000      3.3664440E-31
   6.156000      5.8637697E-31
   6.168000      8.3833981E-31
   6.180000      1.0676403E-30
   6.192000      1.2456425E-30
   6.204000      1.3419847E-30
   6.216000      1.3272628E-30
   6.228000      1.1762614E-30
   6.240000      8.7153333E-31
   6.252000      4.0704003E-31
   6.264000     -2.0850458E-31
   6.276000     -9.4900555E-31
   6.288000     -1.7695136E-30
   6.300000     -2.6063364E-30
   6.312000     -3.3791001E-30
   6.324000     -3.9950144E-30
   6.336000     -4.3554199E-30
   6.348000     -4.3644819E-30
   6.360000     -3.9396383E-30
   6.372000     -3.0231328E-30
   6.384000     -1.5936950E-30
   6.396000      3.2280257E-31
   6.408000      2.6450513E-30
   6.420000      5.2317827E-30
   6.432000      7.8823641E-30
   6.444000      1.0343636E-29
   6.456000      1.2323738E-29
   6.468000      1.3513123E-29
   6.480000      1.3612223E-29
   6.492000      1.2364453E-29
   6.504000      9.5923619E-30
   6.516000      5.2338737E-30
   6.528000     -6.2508177E-31
   6.540000     -7.7257837E-30
   6.552000     -1.5624132E-29
   6.564000     -2.3694352E-29
   6.576000     -3.1152302E-29
   6.588000     -3.7100464E-29
   6.600000     -4.0594815E-29
   6.612000     -4.0731661E-29
   6.624000     -3.6749903E-29
   6.636000     -2.8141547E-29
   6.648000     -1.4760920E-29
   6.660000      3.0791061E-30
   6.672000      2.4536794E-29
   6.684000      4.8210227E-29
   6.696000      7.2156982E-29
   6.708000      9.3974205E-29
   6.720000      1.1094431E-28
   6.732000      1.2024572E-28
   6.744000      1.1922133E-28
   6.756000      1.0568969E-28
   6.768000      7.8275962E-29
   6.780000      3.6732735E-29
   6.792000     -1.7784711E-29
   6.804000     -8.2527428E-29
   6.816000     -1.5308427E-28
   6.828000     -2.2346994E-28
   6.840000     -2.8639481E-28
   6.852000     -3.3372868E-28
   6.864000     -3.5715278E-28
   6.876000     -3.4897412E-28
   6.888000     -3.0305319E-28
   6.900000     -2.1577419E-28
   6.912000     -8.6967070E-29
   6.924000      7.9324270E-29
   6.936000      2.7433940E-28
   6.948000      4.8447317E-28
   6.960000      6.9161517E-28
   6.972000      8.7402206E-28
   6.984000      1.0077469E-27
   6.996000      1.0685977E-27
   7.008000      1.0345379E-27
   7.020000      8.8837775E-28
   7.032000      6.2054267E-28
   7.044000      2.3165550E-28
   7.056000     -2.6536919E-28
   7.068000     -8.4403254E-28
   7.080000     -1.4640572E-27
   7.092000     -2.0725377E-27
   7.104000     -2.6065946E-27
   7.116000     -2.9975728E-27
   7.128000     -3.1766774E-27
   7.140000     -3.0817687E-27
   7.152000     -2.6648738E-27
   7.164000     -1.8998049E-27
   7.176000     -7.8914416E-28
   7.188000      6.3022085E-28
   7.200000      2.2838523E-27
   7.212000      4.0595753E-27
   7.224000      5.8109651E-27
   7.236000      7.3648717E-27
   7.248000      8.5330175E-27
   7.260000      9.1272994E-27
   7.272000      8.9780005E-27
   7.284000      7.9536600E-27
   7.296000      5.9809654E-27
   7.308000      3.0627328E-27
   7.320000     -7.0814109E-28
   7.332000     -5.1408490E-27
   7.344000     -9.9468411E-27
   7.356000     -1.4749405E-26
   7.368000     -1.9103416E-26
   7.380000     -2.2525145E-26
   7.392000     -2.4530978E-26
   7.404000     -2.4682900E-26
   7.416000     -2.2637461E-26
   7.428000     -1.8194142E-26
   7.440000     -1.1338337E-26
   7.452000     -2.2739268E-27
   7.464000      8.5593850E-27
   7.476000      2.0488152E-26
   7.488000      3.2629567E-26
   7.500000      4.3939398E-26
   7.512000      5.3282605E-26
   7.524000      5.9523383E-26
   7.536000      6.1629025E-26
   7.548000      5.8779795E-26
   7.560000      5.0475176E-26
   7.572000      3.6625835E-26
   7.584000      1.7620404E-26
   7.596000     -5.6429035E-27
   7.608000     -3.1767792E-26
   7.620000     -5.8919368E-26
   7.632000     -8.4932432E-26
   7.644000     -1.0746459E-25
   7.656000     -1.2418542E-25
   7.668000     -1.3298793E-25
   7.680000     -1.3220472E-25
   7.692000     -1.2080812E-25
   7.704000     -9.8573027E-26
   7.716000     -6.6181781E-26
   7.728000     -2.5253863E-26
   7.740000      2.1711024E-26
   7.752000      7.1480616E-26
   7.764000      1.2032328E-25
   7.776000      1.6431217E-25
   7.788000      1.9967600E-25
   7.800000      2.2316429E-25
   7.812000      2.3238979E-25
   7.824000      2.2610814E-25
   7.836000      2.0439716E-25
   7.848000      1.6870539E-25
   7.860000      1.2175017E-25
   7.872000      6.7260746E-26
   7.884000      9.5802966E-27
   7.896000     -4.6840712E-26
   7.908000     -9.8008800E-26
   7.920000     -1.4094381E-25
   7.932000     -1.7415222E-25
   7.944000     -1.9794060E-25
   7.956000     -2.1449981E-25
   7.968000     -2.2770872E-25
   7.980000     -2.4263195E-25
   7.992000     -2.6472242E-25
   8.004000     -2.9877878E-25
   8.016000     -3.4775215E-25
   8.028000     -4.1153360E-25
   8.040000     -4.8588670E-25
   8.052000     -5.6170634E-25
   8.064000     -6.2478474E-25
   8.076000     -6.5624274E-25
   8.088000     -6.3373777E-25
   8.100000     -5.3349135E-25
   8.112000     -3.3308851E-25
   8.124000     -1.4899009E-26
   8.136000      4.3013661E-25
   8.148000      9.9871585E-25
   8.160000      1.6718191E-24
   8.172000      2.4122830E-24
   8.184000      3.1638050E-24
   8.196000      3.8518287E-24
   8.208000      4.3866709E-24
   8.220000      4.6690654E-24
   8.232000      4.5981034E-24
   8.244000      4.0812756E-24
   8.256000      3.0460434E-24
   8.268000      1.4520957E-24
   8.280000     -6.9681425E-25
   8.292000     -3.3427231E-24
   8.304000     -6.3663812E-24
   8.316000     -9.5845819E-24
   8.328000     -1.2753084E-23
   8.340000     -1.5575973E-23
   8.352000     -1.7721893E-23
   8.364000     -1.8846935E-23
   8.376000     -1.8623387E-23
   8.388000     -1.6772721E-23
   8.400000     -1.3100618E-23
   8.412000     -7.5311651E-24
   8.424000     -1.3695624E-25
   8.436000      8.8383692E-24
   8.448000      1.8968515E-23
   8.460000      2.9646810E-23
   8.472000      4.0104565E-23
   8.484000      4.9446616E-23
   8.496000      5.6703865E-23
   8.508000      6.0900971E-23
   8.520000      6.1135887E-23
   8.532000      5.6666170E-23
   8.544000      4.6995893E-23
   8.556000      3.1955790E-23
   8.568000      1.1768924E-23
   8.580000     -1.2905609E-23
   8.592000     -4.0957762E-23
   8.604000     -7.0845477E-23
   8.616000     -1.0065055E-22
   8.628000     -1.2817152E-22
   8.640000     -1.5105101E-22
   8.652000     -1.6693115E-22
   8.664000     -1.7362836E-22
   8.676000     -1.6931541E-22
   8.688000     -1.5269752E-22
   8.700000     -1.2316788E-22
   8.712000     -8.0928546E-23
   8.724000     -2.7064249E-23
   8.736000      3.6440451E-23
   8.748000      1.0674654E-22
   8.760000      1.8026919E-22
   8.772000      2.5284552E-22
   8.784000      3.1995189E-22
   8.796000      3.7695654E-22
   8.808000      4.1938983E-22
   8.820000      4.4321200E-22
   8.832000      4.4505866E-22
   8.844000      4.2244547E-22
   8.856000      3.7391818E-22
   8.868000      2.9913916E-22
   8.880000      1.9890984E-22
   8.892000      7.5134773E-23
   8.904000     -6.9257911E-23
   8.916000     -2.3042049E-22
   8.928000     -4.0368963E-22
   8.940000     -5.8366614E-22
   8.952000     -7.6424971E-22
   8.964000     -9.3861442E-22
   8.976000     -1.0991241E-21
   8.988000     -1.2372003E-21
   9.000000     -1.3431726E-21
   9.012000     -1.4061617E-21
   9.024000     -1.4140561E-21
   9.036000     -1.3536612E-21
   9.048000     -1.2110969E-21
   9.060000     -9.7252226E-22
   9.072000     -6.2523889E-22
   9.084000     -1.5920632E-22
   9.096000      4.3105001E-22
   9.108000      1.1442051E-21
   9.120000      1.9697055E-21
   9.132000      2.8853419E-21
   9.144000      3.8550837E-21
   9.156000      4.8274866E-21
   9.168000      5.7350326E-21
   9.180000      6.4947479E-21
   9.192000      7.0104550E-21
   9.204000      7.1769163E-21
   9.216000      6.8860492E-21
   9.228000      6.0352148E-21
   9.240000      4.5374003E-21
   9.252000      2.3329030E-21
   9.264000     -5.9815357E-22
   9.276000     -4.2233520E-21
   9.288000     -8.4466910E-21
   9.300000     -1.3099767E-20
   9.312000     -1.7936836E-20
   9.324000     -2.2635153E-20
   9.336000     -2.6801876E-20
   9.348000     -2.9988567E-20
   9.360000     -3.1713888E-20
   9.372000     -3.1494508E-20
   9.384000     -2.8883667E-20
   9.396000     -2.3515829E-20
   9.408000     -1.5155236E-20
   9.420000     -3.7451487E-21
   9.432000      1.0546114E-20
   9.444000      2.7286856E-20
   9.456000      4.5756310E-20
   9.468000      6.4936450E-20
   9.480000      8.3525926E-20
   9.492000      9.9979724E-20
   9.504000      1.1257710E-19
   9.516000      1.1951825E-19
   9.528000      1.1904830E-19
   9.540000      1.0960431E-19
   9.552000      8.9978490E-20
   9.564000      5.9487999E-20
   9.576000      1.8139134E-20
   9.588000     -3.3228294E-20
   9.600000     -9.2831960E-20
   9.612000     -1.5788929E-19
   9.624000     -2.2462604E-19
   9.636000     -2.8836408E-19
   9.648000     -3.4369734E-19
   9.660000     -3.8475996E-19
   9.672000     -4.0558400E-19
   9.684000     -4.0053678E-19
   9.696000     -3.6481904E-19
   9.708000     -2.9499776E-19
   9.720000     -1.8953821E-19
   9.732000     -4.9294475E-20
   9.744000      1.2208823E-19
   9.756000      3.1790712E-19
   9.768000      5.2831850E-19
   9.780000      7.4047854E-19
   9.792000      9.3894067E-19
   9.804000      1.1063267E-18
   9.816000      1.2242733E-18
   9.828000      1.2746311E-18
   9.840000      1.2408741E-18
   9.852000      1.1096484E-18
   9.864000      8.7237042E-19
   9.876000      5.2675932E-19
   9.888000      7.8177350E-20
   9.900000     -4.5936167E-19
   9.912000     -1.0626503E-18
   9.924000     -1.6993395E-18
   9.936000     -2.3286884E-18
   9.948000     -2.9030785E-18
   9.960000     -3.3703191E-18
   9.972000     -3.6767082E-18
   9.984000     -3.7707545E-18
   9.996000     -3.6073971E-18
   10.00800     -3.1524928E-18
   10.02000     -2.3872856E-18
   10.03200     -1.3125137E-18
   10.04400      4.8210403E-20
   10.05600      1.6461303E-18
   10.06800      3.4065457E-18
   10.08000      5.2297977E-18
   10.09200      6.9942728E-18
   10.10400      8.5615460E-18
   10.11600      9.7836541E-18
   10.12800      1.0512305E-17
   10.14000      1.0609695E-17
   10.15200      9.9603795E-18
   10.16400      8.4835156E-18
   10.17600      6.1446223E-18
   10.18800      2.9659231E-18
   10.20000     -9.6573119E-19
   10.21200     -5.4943508E-18
   10.22400     -1.0394593E-17
   10.23600     -1.5376568E-17
   10.24800     -2.0096163E-17
   10.26000     -2.4170983E-17
   10.27200     -2.7201734E-17
   10.28400     -2.8798286E-17
   10.29600     -2.8609358E-17
   10.30800     -2.6354216E-17
   10.32000     -2.1854357E-17
   10.33200     -1.5062994E-17
   10.34400     -6.0897281E-18
   10.35600      4.7820651E-18
   10.36800      1.7087583E-17
   10.38000      3.0184773E-17
   10.39200      4.3271899E-17
   10.40400      5.5419367E-17
   10.41600      6.5615725E-17
   10.42800      7.2826794E-17
   10.44000      7.6065736E-17
   10.45200      7.4470700E-17
   10.46400      6.7385766E-17
   10.47600      5.4439787E-17
   10.48800      3.5617266E-17
   10.50000      1.1315019E-17
   10.51200     -1.7621721E-17
   10.52400     -4.9889341E-17
   10.53600     -8.3746783E-17
   10.54800     -1.1707063E-16
   10.56000     -1.4744563E-16
   10.57200     -1.7228951E-16
   10.58400     -1.8900871E-16
   10.59600     -1.9517847E-16
   10.60800     -1.8873844E-16
   10.62000     -1.6819222E-16
   10.63200     -1.3279763E-16
   10.64400     -8.2732798E-17
   10.65600     -1.9222953E-17
   10.66800      5.5386862E-17
   10.68000      1.3762613E-16
   10.69200      2.2297068E-16
   10.70400      3.0599830E-16
   10.71600      3.8062982E-16
   10.72800      4.4045136E-16
   10.74000      4.7910725E-16
   10.75200      4.9074686E-16
   10.76400      4.7050224E-16
   10.77600      4.1496856E-16
   10.78800      3.2265346E-16
   10.80000      1.9436133E-16
   10.81200      3.3475874E-17
   10.82400     -1.5389297E-16
   10.83600     -3.5892704E-16
   10.84800     -5.7030554E-16
   10.86000     -7.7461099E-16
   10.87200     -9.5693632E-16
   10.88400     -1.1016805E-15
   10.89600     -1.1935054E-15
   10.90800     -1.2184121E-15
   10.92000     -1.1648797E-15
   10.93200     -1.0249994E-15
   10.94400     -7.9552583E-16
   10.95600     -4.7876393E-16
   10.96800     -8.3207613E-17
   10.98000      3.7614679E-16
   10.99200      8.7787882E-16
   11.00400      1.3946636E-15
   11.01600      1.8942577E-15
   11.02800      2.3409534E-15
   11.04000      2.6974643E-15
   11.05200      2.9271805E-15
   11.06400      2.9966897E-15
   11.07600      2.8784397E-15
   11.08800      2.5533757E-15
   11.10000      2.0133857E-15
   11.11200      1.2633542E-15
   11.12400      3.2264634E-16
   11.13600     -7.7415963E-16
   11.14800     -1.9774382E-15
   11.16000     -3.2236920E-15
   11.17200     -4.4377924E-15
   11.18400     -5.5362891E-15
   11.19600     -6.4317024E-15
   11.20800     -7.0376613E-15
   11.22000     -7.2746603E-15
   11.23200     -7.0761395E-15
   11.24400     -6.3945384E-15
   11.25600     -5.2069301E-15
   11.26800     -3.5198094E-15
   11.28000     -1.3726219E-15
   11.29200      1.1603670E-15
   11.30400      3.9701900E-15
   11.31600      6.9155433E-15
   11.32800      9.8275312E-15
   11.34000      1.2516792E-14
   11.35200      1.4782868E-14
   11.36400      1.6425487E-14
   11.37600      1.7257305E-14
   11.38800      1.7117465E-14
   11.40000      1.5885207E-14
   11.41200      1.3492702E-14
   11.42400      9.9361708E-15
   11.43600      5.2843637E-15
   11.44800     -3.1644124E-16
   11.46000     -6.6416984E-15
   11.47200     -1.3392675E-14