 -0.1200000      0.0000000E+00
 -0.1080000      0.0000000E+00
 -9.6000001E-02  0.0000000E+00
 -8.3999999E-02  0.0000000E+00
 -7.1999997E-02  0.0000000E+00
 -5.9999999E-02  0.0000000E+00
 -4.8000000E-02  0.0000000E+00
 -3.5999998E-02  0.0000000E+00
 -2.4000000E-02  0.0000000E+00
 -1.2000000E-02  0.0000000E+00
  6.9388939E-18  0.0000000E+00
  1.2000000E-02  0.0000000E+00
  2.4000000E-02  0.0000000E+00
  3.5999998E-02  0.0000000E+00
  4.8000000E-02  0.0000000E+00
  5.9999999E-02  0.0000000E+00
  7.1999997E-02  0.0000000E+00
  8.3999999E-02  0.0000000E+00
  9.6000001E-02  0.0000000E+00
  0.1080000      0.0000000E+00
  0.1200000      0.0000000E+00
  0.1320000      0.0000000E+00
  0.1440000      0.0000000E+00
  0.1560000      0.0000000E+00
  0.1680000      0.0000000E+00
  0.1800000      0.0000000E+00
  0.1920000      0.0000000E+00
  0.2040000      0.0000000E+00
  0.2160000      0.0000000E+00
  0.2280000      0.0000000E+00
  0.2400000      0.0000000E+00
  0.2520000      0.0000000E+00
  0.2640000      0.0000000E+00
  0.2760000      0.0000000E+00
  0.2880000      0.0000000E+00
  0.3000000      0.0000000E+00
  0.3120000      0.0000000E+00
  0.3240000      0.0000000E+00
  0.3360000      0.0000000E+00
  0.3480000      0.0000000E+00
  0.3600000      0.0000000E+00
  0.3720000      0.0000000E+00
  0.3840000      0.0000000E+00
  0.3960000      0.0000000E+00
  0.4080000      0.0000000E+00
  0.4200000      0.0000000E+00
  0.4320000      0.0000000E+00
  0.4440000      0.0000000E+00
  0.4560000      0.0000000E+00
  0.4680000      0.0000000E+00
  0.4800000      0.0000000E+00
  0.4920000      0.0000000E+00
  0.5040000      0.0000000E+00
  0.5160000      0.0000000E+00
  0.5280000      0.0000000E+00
  0.5400000      0.0000000E+00
  0.5520000      0.0000000E+00
  0.5640000      0.0000000E+00
  0.5760000      0.0000000E+00
  0.5880000      0.0000000E+00
  0.6000000      0.0000000E+00
  0.6120000      0.0000000E+00
  0.6240000      0.0000000E+00
  0.6360000      0.0000000E+00
  0.6480000      0.0000000E+00
  0.6600000      0.0000000E+00
  0.6720000      0.0000000E+00
  0.6840000      0.0000000E+00
  0.6960000      0.0000000E+00
  0.7080000      0.0000000E+00
  0.7200000      0.0000000E+00
  0.7320000      0.0000000E+00
  0.7440000      0.0000000E+00
  0.7560000      0.0000000E+00
  0.7680000      0.0000000E+00
  0.7800000      0.0000000E+00
  0.7920000      0.0000000E+00
  0.8040000      0.0000000E+00
  0.8160000      0.0000000E+00
  0.8280000      0.0000000E+00
  0.8400000      0.0000000E+00
  0.8520000      0.0000000E+00
  0.8640000      0.0000000E+00
  0.8760000      0.0000000E+00
  0.8880000      0.0000000E+00
  0.9000000      0.0000000E+00
  0.9120000      0.0000000E+00
  0.9240000      0.0000000E+00
  0.9360000      0.0000000E+00
  0.9480000      0.0000000E+00
  0.9600000      0.0000000E+00
  0.9720000      0.0000000E+00
  0.9840000      0.0000000E+00
  0.9960000      0.0000000E+00
   1.008000      0.0000000E+00
   1.020000      0.0000000E+00
   1.032000      0.0000000E+00
   1.044000      0.0000000E+00
   1.056000      0.0000000E+00
   1.068000      0.0000000E+00
   1.080000      0.0000000E+00
   1.092000      0.0000000E+00
   1.104000      0.0000000E+00
   1.116000      0.0000000E+00
   1.128000      0.0000000E+00
   1.140000      0.0000000E+00
   1.152000      0.0000000E+00
   1.164000      0.0000000E+00
   1.176000      0.0000000E+00
   1.188000      0.0000000E+00
   1.200000      0.0000000E+00
   1.212000      0.0000000E+00
   1.224000      0.0000000E+00
   1.236000      0.0000000E+00
   1.248000      0.0000000E+00
   1.260000      0.0000000E+00
   1.272000      0.0000000E+00
   1.284000      0.0000000E+00
   1.296000      0.0000000E+00
   1.308000      0.0000000E+00
   1.320000      0.0000000E+00
   1.332000      0.0000000E+00
   1.344000      0.0000000E+00
   1.356000      0.0000000E+00
   1.368000      0.0000000E+00
   1.380000      0.0000000E+00
   1.392000      0.0000000E+00
   1.404000      0.0000000E+00
   1.416000      0.0000000E+00
   1.428000      0.0000000E+00
   1.440000      0.0000000E+00
   1.452000      0.0000000E+00
   1.464000      0.0000000E+00
   1.476000      0.0000000E+00
   1.488000      0.0000000E+00
   1.500000      0.0000000E+00
   1.512000      0.0000000E+00
   1.524000      0.0000000E+00
   1.536000      0.0000000E+00
   1.548000      0.0000000E+00
   1.560000      0.0000000E+00
   1.572000      0.0000000E+00
   1.584000      0.0000000E+00
   1.596000      0.0000000E+00
   1.608000      0.0000000E+00
   1.620000      0.0000000E+00
   1.632000      0.0000000E+00
   1.644000      0.0000000E+00
   1.656000      0.0000000E+00
   1.668000      0.0000000E+00
   1.680000      0.0000000E+00
   1.692000      0.0000000E+00
   1.704000      0.0000000E+00
   1.716000      0.0000000E+00
   1.728000      0.0000000E+00
   1.740000      0.0000000E+00
   1.752000      0.0000000E+00
   1.764000      0.0000000E+00
   1.776000      0.0000000E+00
   1.788000      0.0000000E+00
   1.800000      0.0000000E+00
   1.812000      0.0000000E+00
   1.824000      0.0000000E+00
   1.836000      0.0000000E+00
   1.848000      0.0000000E+00
   1.860000      0.0000000E+00
   1.872000      0.0000000E+00
   1.884000      0.0000000E+00
   1.896000      0.0000000E+00
   1.908000      0.0000000E+00
   1.920000      0.0000000E+00
   1.932000      0.0000000E+00
   1.944000      0.0000000E+00
   1.956000      0.0000000E+00
   1.968000      0.0000000E+00
   1.980000      0.0000000E+00
   1.992000      0.0000000E+00
   2.004000      0.0000000E+00
   2.016000      0.0000000E+00
   2.028000      0.0000000E+00
   2.040000      0.0000000E+00
   2.052000      0.0000000E+00
   2.064000      0.0000000E+00
   2.076000      0.0000000E+00
   2.088000      0.0000000E+00
   2.100000      0.0000000E+00
   2.112000      0.0000000E+00
   2.124000      0.0000000E+00
   2.136000      0.0000000E+00
   2.148000      0.0000000E+00
   2.160000      0.0000000E+00
   2.172000      0.0000000E+00
   2.184000      0.0000000E+00
   2.196000      0.0000000E+00
   2.208000      0.0000000E+00
   2.220000      0.0000000E+00
   2.232000      0.0000000E+00
   2.244000      0.0000000E+00
   2.256000      0.0000000E+00
   2.268000      0.0000000E+00
   2.280000      0.0000000E+00
   2.292000      0.0000000E+00
   2.304000      0.0000000E+00
   2.316000      0.0000000E+00
   2.328000      0.0000000E+00
   2.340000      0.0000000E+00
   2.352000      0.0000000E+00
   2.364000      0.0000000E+00
   2.376000      0.0000000E+00
   2.388000      0.0000000E+00
   2.400000      0.0000000E+00
   2.412000      0.0000000E+00
   2.424000      0.0000000E+00
   2.436000      0.0000000E+00
   2.448000      0.0000000E+00
   2.460000      0.0000000E+00
   2.472000      0.0000000E+00
   2.484000      0.0000000E+00
   2.496000      0.0000000E+00
   2.508000      0.0000000E+00
   2.520000      0.0000000E+00
   2.532000      0.0000000E+00
   2.544000      0.0000000E+00
   2.556000      0.0000000E+00
   2.568000      0.0000000E+00
   2.580000      0.0000000E+00
   2.592000      0.0000000E+00
   2.604000      0.0000000E+00
   2.616000      0.0000000E+00
   2.628000      0.0000000E+00
   2.640000      0.0000000E+00
   2.652000      0.0000000E+00
   2.664000      0.0000000E+00
   2.676000      0.0000000E+00
   2.688000      0.0000000E+00
   2.700000      0.0000000E+00
   2.712000      0.0000000E+00
   2.724000      0.0000000E+00
   2.736000      0.0000000E+00
   2.748000      0.0000000E+00
   2.760000      0.0000000E+00
   2.772000      0.0000000E+00
   2.784000      0.0000000E+00
   2.796000      0.0000000E+00
   2.808000      0.0000000E+00
   2.820000      0.0000000E+00
   2.832000      0.0000000E+00
   2.844000      0.0000000E+00
   2.856000      0.0000000E+00
   2.868000      0.0000000E+00
   2.880000      0.0000000E+00
   2.892000      0.0000000E+00
   2.904000      0.0000000E+00
   2.916000      0.0000000E+00
   2.928000      0.0000000E+00
   2.940000      0.0000000E+00
   2.952000      0.0000000E+00
   2.964000      0.0000000E+00
   2.976000      0.0000000E+00
   2.988000      0.0000000E+00
   3.000000      0.0000000E+00
   3.012000      0.0000000E+00
   3.024000      0.0000000E+00
   3.036000      0.0000000E+00
   3.048000      0.0000000E+00
   3.060000      0.0000000E+00
   3.072000      0.0000000E+00
   3.084000      0.0000000E+00
   3.096000      0.0000000E+00
   3.108000      0.0000000E+00
   3.120000      0.0000000E+00
   3.132000      0.0000000E+00
   3.144000      0.0000000E+00
   3.156000      0.0000000E+00
   3.168000      0.0000000E+00
   3.180000      0.0000000E+00
   3.192000      0.0000000E+00
   3.204000      0.0000000E+00
   3.216000      0.0000000E+00
   3.228000      0.0000000E+00
   3.240000      0.0000000E+00
   3.252000      0.0000000E+00
   3.264000      0.0000000E+00
   3.276000      0.0000000E+00
   3.288000      0.0000000E+00
   3.300000      0.0000000E+00
   3.312000      0.0000000E+00
   3.324000      0.0000000E+00
   3.336000      0.0000000E+00
   3.348000      0.0000000E+00
   3.360000      0.0000000E+00
   3.372000      0.0000000E+00
   3.384000      0.0000000E+00
   3.396000      0.0000000E+00
   3.408000      0.0000000E+00
   3.420000      0.0000000E+00
   3.432000      0.0000000E+00
   3.444000      0.0000000E+00
   3.456000      0.0000000E+00
   3.468000      0.0000000E+00
   3.480000      0.0000000E+00
   3.492000      0.0000000E+00
   3.504000      0.0000000E+00
   3.516000      0.0000000E+00
   3.528000      0.0000000E+00
   3.540000      0.0000000E+00
   3.552000      0.0000000E+00
   3.564000      0.0000000E+00
   3.576000      0.0000000E+00
   3.588000      0.0000000E+00
   3.600000      0.0000000E+00
   3.612000      0.0000000E+00
   3.624000      0.0000000E+00
   3.636000      0.0000000E+00
   3.648000      0.0000000E+00
   3.660000      0.0000000E+00
   3.672000      0.0000000E+00
   3.684000      0.0000000E+00
   3.696000      0.0000000E+00
   3.708000      0.0000000E+00
   3.720000      0.0000000E+00
   3.732000      0.0000000E+00
   3.744000      0.0000000E+00
   3.756000      0.0000000E+00
   3.768000      0.0000000E+00
   3.780000      0.0000000E+00
   3.792000      0.0000000E+00
   3.804000      0.0000000E+00
   3.816000      0.0000000E+00
   3.828000      0.0000000E+00
   3.840000      0.0000000E+00
   3.852000      0.0000000E+00
   3.864000      0.0000000E+00
   3.876000      0.0000000E+00
   3.888000      0.0000000E+00
   3.900000      0.0000000E+00
   3.912000      0.0000000E+00
   3.924000      0.0000000E+00
   3.936000      0.0000000E+00
   3.948000      0.0000000E+00
   3.960000      0.0000000E+00
   3.972000      0.0000000E+00
   3.984000      0.0000000E+00
   3.996000      0.0000000E+00
   4.008000      0.0000000E+00
   4.020000      0.0000000E+00
   4.032000      0.0000000E+00
   4.044000      0.0000000E+00
   4.056000      0.0000000E+00
   4.068000      0.0000000E+00
   4.080000      0.0000000E+00
   4.092000      0.0000000E+00
   4.104000      0.0000000E+00
   4.116000      0.0000000E+00
   4.128000      0.0000000E+00
   4.140000      0.0000000E+00
   4.152000      0.0000000E+00
   4.164000      0.0000000E+00
   4.176000      0.0000000E+00
   4.188000      0.0000000E+00
   4.200000      0.0000000E+00
   4.212000      0.0000000E+00
   4.224000      0.0000000E+00
   4.236000      0.0000000E+00
   4.248000      0.0000000E+00
   4.260000      0.0000000E+00
   4.272000      0.0000000E+00
   4.284000      0.0000000E+00
   4.296000      0.0000000E+00
   4.308000      0.0000000E+00
   4.320000      0.0000000E+00
   4.332000      0.0000000E+00
   4.344000      0.0000000E+00
   4.356000      0.0000000E+00
   4.368000      0.0000000E+00
   4.380000      0.0000000E+00
   4.392000      0.0000000E+00
   4.404000      0.0000000E+00
   4.416000      0.0000000E+00
   4.428000      0.0000000E+00
   4.440000      0.0000000E+00
   4.452000      0.0000000E+00
   4.464000      0.0000000E+00
   4.476000      0.0000000E+00
   4.488000      0.0000000E+00
   4.500000      0.0000000E+00
   4.512000      0.0000000E+00
   4.524000      0.0000000E+00
   4.536000      0.0000000E+00
   4.548000      0.0000000E+00
   4.560000      0.0000000E+00
   4.572000      0.0000000E+00
   4.584000      0.0000000E+00
   4.596000      0.0000000E+00
   4.608000      0.0000000E+00
   4.620000      0.0000000E+00
   4.632000      0.0000000E+00
   4.644000      0.0000000E+00
   4.656000      0.0000000E+00
   4.668000      0.0000000E+00
   4.680000      0.0000000E+00
   4.692000      0.0000000E+00
   4.704000      0.0000000E+00
   4.716000      0.0000000E+00
   4.728000      0.0000000E+00
   4.740000      0.0000000E+00
   4.752000      0.0000000E+00
   4.764000      0.0000000E+00
   4.776000      0.0000000E+00
   4.788000      0.0000000E+00
   4.800000      0.0000000E+00
   4.812000      0.0000000E+00
   4.824000      0.0000000E+00
   4.836000      0.0000000E+00
   4.848000      0.0000000E+00
   4.860000      0.0000000E+00
   4.872000      0.0000000E+00
   4.884000      0.0000000E+00
   4.896000      0.0000000E+00
   4.908000      0.0000000E+00
   4.920000      0.0000000E+00
   4.932000      0.0000000E+00
   4.944000      0.0000000E+00
   4.956000      0.0000000E+00
   4.968000      0.0000000E+00
   4.980000      0.0000000E+00
   4.992000      0.0000000E+00
   5.004000      0.0000000E+00
   5.016000      0.0000000E+00
   5.028000      0.0000000E+00
   5.040000      0.0000000E+00
   5.052000      0.0000000E+00
   5.064000      0.0000000E+00
   5.076000      0.0000000E+00
   5.088000      0.0000000E+00
   5.100000      0.0000000E+00
   5.112000      0.0000000E+00
   5.124000      0.0000000E+00
   5.136000      0.0000000E+00
   5.148000      0.0000000E+00
   5.160000      0.0000000E+00
   5.172000      0.0000000E+00
   5.184000      0.0000000E+00
   5.196000      0.0000000E+00
   5.208000      0.0000000E+00
   5.220000      0.0000000E+00
   5.232000      0.0000000E+00
   5.244000      0.0000000E+00
   5.256000      0.0000000E+00
   5.268000      0.0000000E+00
   5.280000      0.0000000E+00
   5.292000      0.0000000E+00
   5.304000      0.0000000E+00
   5.316000      0.0000000E+00
   5.328000      0.0000000E+00
   5.340000      0.0000000E+00
   5.352000      0.0000000E+00
   5.364000      0.0000000E+00
   5.376000      0.0000000E+00
   5.388000      0.0000000E+00
   5.400000      0.0000000E+00
   5.412000      0.0000000E+00
   5.424000      0.0000000E+00
   5.436000      0.0000000E+00
   5.448000      0.0000000E+00
   5.460000      0.0000000E+00
   5.472000      0.0000000E+00
   5.484000      0.0000000E+00
   5.496000      0.0000000E+00
   5.508000      0.0000000E+00
   5.520000      0.0000000E+00
   5.532000      0.0000000E+00
   5.544000      0.0000000E+00
   5.556000      0.0000000E+00
   5.568000      0.0000000E+00
   5.580000      0.0000000E+00
   5.592000      0.0000000E+00
   5.604000      0.0000000E+00
   5.616000      0.0000000E+00
   5.628000      0.0000000E+00
   5.640000      0.0000000E+00
   5.652000      0.0000000E+00
   5.664000      0.0000000E+00
   5.676000      0.0000000E+00
   5.688000      0.0000000E+00
   5.700000      0.0000000E+00
   5.712000      0.0000000E+00
   5.724000      0.0000000E+00
   5.736000      0.0000000E+00
   5.748000      0.0000000E+00
   5.760000      0.0000000E+00
   5.772000      0.0000000E+00
   5.784000      0.0000000E+00
   5.796000      0.0000000E+00
   5.808000      0.0000000E+00
   5.820000      0.0000000E+00
   5.832000      0.0000000E+00
   5.844000      0.0000000E+00
   5.856000      0.0000000E+00
   5.868000      0.0000000E+00
   5.880000      0.0000000E+00
   5.892000      0.0000000E+00
   5.904000      0.0000000E+00
   5.916000      0.0000000E+00
   5.928000      0.0000000E+00
   5.940000      0.0000000E+00
   5.952000      0.0000000E+00
   5.964000      0.0000000E+00
   5.976000      0.0000000E+00
   5.988000      0.0000000E+00
   6.000000      0.0000000E+00
   6.012000      0.0000000E+00
   6.024000      0.0000000E+00
   6.036000      0.0000000E+00
   6.048000      0.0000000E+00
   6.060000      0.0000000E+00
   6.072000      0.0000000E+00
   6.084000      0.0000000E+00
   6.096000      0.0000000E+00
   6.108000      0.0000000E+00
   6.120000      0.0000000E+00
   6.132000      0.0000000E+00
   6.144000      0.0000000E+00
   6.156000      0.0000000E+00
   6.168000      0.0000000E+00
   6.180000      0.0000000E+00
   6.192000      0.0000000E+00
   6.204000      0.0000000E+00
   6.216000      0.0000000E+00
   6.228000      0.0000000E+00
   6.240000      0.0000000E+00
   6.252000      0.0000000E+00
   6.264000      0.0000000E+00
   6.276000      0.0000000E+00
   6.288000      0.0000000E+00
   6.300000      0.0000000E+00
   6.312000      0.0000000E+00
   6.324000      0.0000000E+00
   6.336000      0.0000000E+00
   6.348000      0.0000000E+00
   6.360000      0.0000000E+00
   6.372000      0.0000000E+00
   6.384000      0.0000000E+00
   6.396000      0.0000000E+00
   6.408000      0.0000000E+00
   6.420000      0.0000000E+00
   6.432000      0.0000000E+00
   6.444000      0.0000000E+00
   6.456000      0.0000000E+00
   6.468000      0.0000000E+00
   6.480000      0.0000000E+00
   6.492000      0.0000000E+00
   6.504000      0.0000000E+00
   6.516000      0.0000000E+00
   6.528000      0.0000000E+00
   6.540000     -1.5710590E-38
   6.552000     -1.7125241E-38
   6.564000     -1.4249880E-38
   6.576000      0.0000000E+00
   6.588000      0.0000000E+00
   6.600000      0.0000000E+00
   6.612000      0.0000000E+00
   6.624000      0.0000000E+00
   6.636000     -2.6080342E-38
   6.648000     -3.9402876E-38
   6.660000     -4.1708477E-38
   6.672000      0.0000000E+00
   6.684000      5.1016950E-38
   6.696000      9.4380916E-38
   6.708000      8.3882113E-38
   6.720000      0.0000000E+00
   6.732000     -1.8234618E-37
   6.744000     -3.5653396E-37
   6.756000     -4.9236341E-37
   6.768000     -2.4638336E-37
   6.780000      3.7574995E-37
   6.792000      1.1295419E-36
   6.804000      1.8380930E-36
   6.816000      1.9281401E-36
   6.828000      1.1316147E-36
   6.840000     -3.0407764E-37
   6.852000     -1.7606443E-36
   6.864000     -2.8010239E-36
   6.876000     -2.8751265E-36
   6.888000     -1.8111377E-36
   6.900000      1.9758546E-37
   6.912000      2.5723042E-36
   6.924000      4.2855852E-36
   6.936000      4.5466760E-36
   6.948000      3.4185014E-36
   6.960000      1.1088682E-36
   6.972000     -1.9879911E-36
   6.984000     -4.7550282E-36
   6.996000     -6.0997366E-36
   7.008000     -5.4168515E-36
   7.020000     -2.6996883E-36
   7.032000      1.4011351E-36
   7.044000      6.1775744E-36
   7.056000      1.0669287E-35
   7.068000      1.4038974E-35
   7.080000      1.5781927E-35
   7.092000      1.5869436E-35
   7.104000      1.4435947E-35
   7.116000      1.1508228E-35
   7.128000      7.2142608E-36
   7.140000      1.4427047E-36
   7.152000     -5.9702367E-36
   7.164000     -1.5030756E-35
   7.176000     -2.5511356E-35
   7.188000     -3.6756885E-35
   7.200000     -4.8331168E-35
   7.212000     -5.9199015E-35
   7.224000     -6.7505248E-35
   7.236000     -7.1326007E-35
   7.248000     -6.8879986E-35
   7.260000     -5.8472762E-35
   7.272000     -3.8835561E-35
   7.284000     -9.8435943E-36
   7.296000      2.7447179E-35
   7.308000      7.1070452E-35
   7.320000      1.1765908E-34
   7.332000      1.6289432E-34
   7.344000      2.0242183E-34
   7.356000      2.3178345E-34
   7.368000      2.4649145E-34
   7.380000      2.4254271E-34
   7.392000      2.1662228E-34
   7.404000      1.6629738E-34
   7.416000      9.0393822E-35
   7.428000     -1.0409527E-35
   7.440000     -1.3312981E-34
   7.452000     -2.7187022E-34
   7.464000     -4.1753596E-34
   7.476000     -5.5815199E-34
   7.488000     -6.7909953E-34
   7.500000     -7.6450204E-34
   7.512000     -7.9815194E-34
   7.524000     -7.6546204E-34
   7.536000     -6.5523763E-34
   7.548000     -4.6139315E-34
   7.560000     -1.8442215E-34
   7.572000      1.6750009E-34
   7.584000      5.7794061E-34
   7.596000      1.0221889E-33
   7.608000      1.4678273E-33
   7.620000      1.8760546E-33
   7.632000      2.2037544E-33
   7.644000      2.4059003E-33
   7.656000      2.4393554E-33
   7.668000      2.2668147E-33
   7.680000      1.8613841E-33
   7.692000      1.2109987E-33
   7.704000      3.2260871E-34
   7.716000     -7.7458236E-34
   7.728000     -2.0272493E-33
   7.740000     -3.3579550E-33
   7.752000     -4.6673440E-33
   7.764000     -5.8387388E-33
   7.776000     -6.7450652E-33
   7.788000     -7.2578915E-33
   7.800000     -7.2581090E-33
   7.812000     -6.6476542E-33
   7.824000     -5.3614172E-33
   7.836000     -3.3784527E-33
   7.848000     -7.3149797E-34
   7.860000      2.4862086E-33
   7.872000      6.1177748E-33
   7.884000      9.9440203E-33
   7.896000      1.3690039E-32
   7.908000      1.7037351E-32
   7.920000      1.9641685E-32
   7.932000      2.1155964E-32
   7.944000      2.1257533E-32
   7.956000      1.9678274E-32
   7.968000      1.6235323E-32
   7.980000      1.0860290E-32
   7.992000      3.6241934E-33
   8.004000     -5.2444897E-33
   8.016000     -1.5351139E-32
   8.028000     -2.6137669E-32
   8.040000     -3.6897948E-32
   8.052000     -4.6806592E-32
   8.064000     -5.4960867E-32
   8.076000     -6.0434492E-32
   8.088000     -6.2341326E-32
   8.100000     -5.9905813E-32
   8.112000     -5.2536592E-32
   8.124000     -3.9898491E-32
   8.136000     -2.1978046E-32
   8.148000      8.6290800E-34
   8.160000      2.7850867E-32
   8.172000      5.7786503E-32
   8.184000      8.9056827E-32
   8.196000      1.1967679E-31
   8.208000      1.4736179E-31
   8.220000      1.6963117E-31
   8.232000      1.8394025E-31
   8.244000      1.8783779E-31
   8.256000      1.7914266E-31
   8.268000      1.5613253E-31
   8.280000      1.1773562E-31
   8.292000      6.3714927E-32
   8.304000     -5.1668233E-33
   8.316000     -8.7014218E-32
   8.328000     -1.7871151E-31
   8.340000     -2.7589386E-31
   8.352000     -3.7299028E-31
   8.364000     -4.6334992E-31
   8.376000     -5.3946116E-31
   8.388000     -5.9326955E-31
   8.400000     -6.1659555E-31
   8.412000     -6.0164824E-31
   8.424000     -5.4162322E-31
   8.436000     -4.3136496E-31
   8.448000     -2.6806483E-31
   8.460000     -5.1956891E-32
   8.472000      2.1303707E-31
   8.484000      5.1876865E-31
   8.496000      8.5249418E-31
   8.508000      1.1967425E-30
   8.520000      1.5294869E-30
   8.532000      1.8246811E-30
   8.544000      2.0532106E-30
   8.556000      2.1842861E-30
   8.568000      2.1872867E-30
   8.580000      2.0340194E-30
   8.592000      1.7013251E-30
   8.604000      1.1739177E-30
   8.616000      4.4729309E-31
   8.628000     -4.6949592E-31
   8.640000     -1.5514455E-30
   8.652000     -2.7558600E-30
   8.664000     -4.0215516E-30
   8.676000     -5.2692589E-30
   8.688000     -6.4035320E-30
   8.700000     -7.3162768E-30
   8.712000     -7.8920547E-30
   8.724000     -8.0151269E-30
   8.736000     -7.5780890E-30
   8.748000     -6.4917802E-30
   8.760000     -4.6959878E-30
   8.772000     -2.1702849E-30
   8.784000      1.0557954E-30
   8.796000      4.8941818E-30
   8.808000      9.1922944E-30
   8.820000      1.3730686E-29
   8.832000      1.8225266E-29
   8.844000      2.2334892E-29
   8.856000      2.5674870E-29
   8.868000      2.7836612E-29
   8.880000      2.8413202E-29
   8.892000      2.7030147E-29
   8.904000      2.3380111E-29
   8.916000      1.7259739E-29
   8.928000      8.6063279E-30
   8.940000     -2.4685637E-30
   8.952000     -1.5651602E-29
   8.964000     -3.0409639E-29
   8.976000     -4.5984358E-29
   8.988000     -6.1402553E-29
   9.000000     -7.5504434E-29
   9.012000     -8.6991379E-29
   9.024000     -9.4493586E-29
   9.036000     -9.6656448E-29
   9.048000     -9.2243095E-29
   9.060000     -8.0248758E-29
   9.072000     -6.0020776E-29
   9.084000     -3.1376676E-29
   9.096000      5.2887326E-30
   9.108000      4.8917263E-29
   9.120000      9.7732723E-29
   9.132000      1.4922790E-28
   9.144000      2.0020219E-28
   9.156000      2.4685742E-28
   9.168000      2.8495578E-28
   9.180000      3.1004128E-28
   9.192000      3.1772069E-28
   9.204000      3.0399531E-28
   9.216000      2.6562977E-28
   9.228000      2.0053843E-28
   9.240000      1.0816420E-28
   9.252000     -1.0178842E-29
   9.264000     -1.5103096E-28
   9.276000     -3.0861455E-28
   9.288000     -4.7479662E-28
   9.300000     -6.3921567E-28
   9.312000     -7.8959642E-28
   9.324000     -9.1226718E-28
   9.336000     -9.9288198E-28
   9.348000     -1.0173365E-27
   9.360000     -9.7284759E-28
   9.372000     -8.4915233E-28
   9.384000     -6.3976008E-28
   9.396000     -3.4317652E-28
   9.408000      3.5996151E-29
   9.420000      4.8618999E-28
   9.432000      9.8834334E-28
   9.444000      1.5158230E-27
   9.456000      2.0348923E-27
   9.468000      2.5058016E-27
   9.480000      2.8845431E-27
   9.492000      3.1252751E-27
   9.504000      3.1833671E-27
   9.516000      3.0189634E-27
   9.528000      2.6008948E-27
   9.540000      1.9107268E-27
   9.552000      9.4665003E-28
   9.564000     -2.7310236E-28
   9.576000     -1.7076682E-27
   9.588000     -3.2921631E-27
   9.600000     -4.9378244E-27
   9.612000     -6.5339900E-27
   9.624000     -7.9521216E-27
   9.636000     -9.0519832E-27
   9.648000     -9.6899205E-27
   9.660000     -9.7290277E-27
   9.672000     -9.0508061E-27
   9.684000     -7.5677091E-27
   9.696000     -5.2357761E-27
   9.708000     -2.0664400E-27
   9.720000      1.8636017E-27
   9.732000      6.4055467E-27
   9.744000      1.1335823E-26
   9.756000      1.6358592E-26
   9.768000      2.1114241E-26
   9.780000      2.5194375E-26
   9.792000      2.8163379E-26
   9.804000      2.9586210E-26
   9.816000      2.9061423E-26
   9.828000      2.6257953E-26
   9.840000      2.0953498E-26
   9.852000      1.3071938E-26
   9.864000      2.7166621E-27
   9.876000     -9.8034048E-27
   9.888000     -2.3958504E-26
   9.900000     -3.8996590E-26
   9.912000     -5.3958443E-26
   9.924000     -6.7711173E-26
   9.936000     -7.9001079E-26
   9.948000     -8.6525302E-26
   9.960000     -8.9020278E-26
   9.972000     -8.5363471E-26
   9.984000     -7.4682941E-26
   9.996000     -5.6468100E-26
   10.00800     -3.0673402E-26
   10.02000      2.1939847E-27
   10.03200      4.1011948E-26
   10.04400      8.4015720E-26
   10.05600      1.2881288E-25
   10.06800      1.7244736E-25
   10.08000      2.1151619E-25
   10.09200      2.4233970E-25
   10.10400      2.6118132E-25
   10.11600      2.6451007E-25
   10.12800      2.4929289E-25
   10.14000      2.1330126E-25
   10.15200      1.5541164E-25
   10.16400      7.5877178E-26
   10.17600     -2.3453926E-26
   10.18800     -1.3899785E-25
   10.20000     -2.6539549E-25
   10.21200     -3.9559264E-25
   10.22400     -5.2105421E-25
   10.23600     -6.3211878E-25
   10.24800     -7.1849012E-25
   10.26000     -7.6985434E-25
   10.27200     -7.7659732E-25
   10.28400     -7.3058962E-25
   10.29600     -6.2599327E-25
   10.30800     -4.6003873E-25
   10.32000     -2.3371301E-25
   10.33200      4.7701729E-26
   10.34400      3.7429912E-25
   10.35600      7.3148316E-25
   10.36800      1.1002106E-24
   10.38000      1.4575712E-24
   10.39200      1.7777170E-24
   10.40400      2.0331292E-24
   10.41600      2.1961884E-24
   10.42800      2.2409897E-24
   10.44000      2.1453171E-24
   10.45200      1.8926680E-24
   10.46400      1.4742099E-24
   10.47600      8.9052447E-25
   10.48800      1.5300041E-25
   10.50000     -7.1526344E-25
   10.51200     -1.6791752E-24
   10.52400     -2.6920898E-24
   10.53600     -3.6970444E-24
   10.54800     -4.6288283E-24
   10.56000     -5.4168633E-24
   10.57200     -5.9888423E-24
   10.58400     -6.2749953E-24
   10.59600     -6.2128090E-24
   10.60800     -5.7519809E-24
   10.62000     -4.8593335E-24
   10.63200     -3.5233825E-24
   10.64400     -1.7582443E-24
   10.65600      3.9345323E-25
   10.66800      2.8589591E-24
   10.68000      5.5353719E-24
   10.69200      8.2914196E-24
   10.70400      1.0971190E-23
   10.71600      1.3399883E-23
   10.72800      1.5391517E-23
   10.74000      1.6758435E-23
   10.75200      1.7322313E-23
   10.76400      1.6926229E-23
   10.77600      1.5447272E-23
   10.78800      1.2809012E-23
   10.80000      8.9930916E-24
   10.81200      4.0491315E-24
   10.82400     -1.8978928E-24
   10.83600     -8.6436168E-24
   10.84800     -1.5904364E-23
   10.86000     -2.3321960E-23
   10.87200     -3.0473744E-23
   10.88400     -3.6888045E-23
   10.89600     -4.2065030E-23
   10.90800     -4.5502560E-23
   10.92000     -4.6726346E-23
   10.93200     -4.5323230E-23
   10.94400     -4.0976092E-23
   10.95600     -3.3498565E-23
   10.96800     -2.2867252E-23
   10.98000     -9.2491953E-24
   10.99200      6.9780869E-24
   11.00400      2.5216431E-23
   11.01600      4.4649085E-23
   11.02800      6.4256949E-23
   11.04000      8.2850407E-23
   11.05200      9.9117407E-23
   11.06400      1.1168738E-22
   11.07600      1.1920972E-22
   11.08800      1.2044398E-22
   11.10000      1.1435811E-22
   11.11200      1.0022930E-22
   11.12400      7.7741409E-23
   11.13600      4.7071655E-23
   11.14800      8.9588961E-24
   11.16000     -3.5254292E-23
   11.17200     -8.3613216E-23
   11.18400     -1.3358275E-22
   11.19600     -1.8212388E-22
   11.20800     -2.2581745E-22
   11.22000     -2.6103511E-22
   11.23200     -2.8415292E-22
   11.24400     -2.9180084E-22
   11.25600     -2.8113637E-22
   11.26800     -2.5012719E-22
   11.28000     -1.9782416E-22
   11.29200     -1.2460435E-22
   11.30400     -3.2360662E-23
   11.31600      7.5383920E-23
   11.32800      1.9345896E-22
   11.34000      3.1514375E-22
   11.35200      4.3239195E-22
   11.36400      5.3618883E-22
   11.37600      6.1703867E-22
   11.38800      6.6556828E-22
   11.40000      6.7322404E-22
   11.41200      6.3302652E-22
   11.42400      5.4033822E-22
   11.43600      3.9359068E-22
   11.44800      1.9491100E-22
   11.46000     -4.9415342E-23
   11.47200     -3.2870655E-22