 -0.1200000      0.0000000E+00
 -0.1080000      0.0000000E+00
 -9.6000001E-02  0.0000000E+00
 -8.3999999E-02  0.0000000E+00
 -7.1999997E-02  0.0000000E+00
 -5.9999999E-02  0.0000000E+00
 -4.8000000E-02  0.0000000E+00
 -3.5999998E-02  0.0000000E+00
 -2.4000000E-02  0.0000000E+00
 -1.2000000E-02  0.0000000E+00
  6.9388939E-18  0.0000000E+00
  1.2000000E-02  0.0000000E+00
  2.4000000E-02  0.0000000E+00
  3.5999998E-02  0.0000000E+00
  4.8000000E-02  0.0000000E+00
  5.9999999E-02  0.0000000E+00
  7.1999997E-02  0.0000000E+00
  8.3999999E-02  0.0000000E+00
  9.6000001E-02  0.0000000E+00
  0.1080000      0.0000000E+00
  0.1200000      0.0000000E+00
  0.1320000      0.0000000E+00
  0.1440000      0.0000000E+00
  0.1560000      0.0000000E+00
  0.1680000      0.0000000E+00
  0.1800000      0.0000000E+00
  0.1920000      0.0000000E+00
  0.2040000      0.0000000E+00
  0.2160000      0.0000000E+00
  0.2280000      0.0000000E+00
  0.2400000      0.0000000E+00
  0.2520000      0.0000000E+00
  0.2640000      0.0000000E+00
  0.2760000      0.0000000E+00
  0.2880000      0.0000000E+00
  0.3000000      0.0000000E+00
  0.3120000      0.0000000E+00
  0.3240000      0.0000000E+00
  0.3360000      0.0000000E+00
  0.3480000      0.0000000E+00
  0.3600000      0.0000000E+00
  0.3720000      0.0000000E+00
  0.3840000      0.0000000E+00
  0.3960000      0.0000000E+00
  0.4080000      0.0000000E+00
  0.4200000      0.0000000E+00
  0.4320000      0.0000000E+00
  0.4440000      0.0000000E+00
  0.4560000      0.0000000E+00
  0.4680000      0.0000000E+00
  0.4800000      0.0000000E+00
  0.4920000      0.0000000E+00
  0.5040000      0.0000000E+00
  0.5160000      0.0000000E+00
  0.5280000      0.0000000E+00
  0.5400000      0.0000000E+00
  0.5520000      0.0000000E+00
  0.5640000      0.0000000E+00
  0.5760000      0.0000000E+00
  0.5880000      0.0000000E+00
  0.6000000      0.0000000E+00
  0.6120000      0.0000000E+00
  0.6240000      0.0000000E+00
  0.6360000      0.0000000E+00
  0.6480000      0.0000000E+00
  0.6600000      0.0000000E+00
  0.6720000      0.0000000E+00
  0.6840000      0.0000000E+00
  0.6960000      0.0000000E+00
  0.7080000      0.0000000E+00
  0.7200000      0.0000000E+00
  0.7320000      0.0000000E+00
  0.7440000      0.0000000E+00
  0.7560000      0.0000000E+00
  0.7680000      0.0000000E+00
  0.7800000      0.0000000E+00
  0.7920000      0.0000000E+00
  0.8040000      0.0000000E+00
  0.8160000      0.0000000E+00
  0.8280000      0.0000000E+00
  0.8400000      0.0000000E+00
  0.8520000      0.0000000E+00
  0.8640000      0.0000000E+00
  0.8760000      0.0000000E+00
  0.8880000      0.0000000E+00
  0.9000000      0.0000000E+00
  0.9120000      0.0000000E+00
  0.9240000      0.0000000E+00
  0.9360000      0.0000000E+00
  0.9480000      0.0000000E+00
  0.9600000      0.0000000E+00
  0.9720000      0.0000000E+00
  0.9840000      0.0000000E+00
  0.9960000      0.0000000E+00
   1.008000      0.0000000E+00
   1.020000      0.0000000E+00
   1.032000      0.0000000E+00
   1.044000      0.0000000E+00
   1.056000      0.0000000E+00
   1.068000      0.0000000E+00
   1.080000      0.0000000E+00
   1.092000      0.0000000E+00
   1.104000      0.0000000E+00
   1.116000      0.0000000E+00
   1.128000      0.0000000E+00
   1.140000      0.0000000E+00
   1.152000      0.0000000E+00
   1.164000      0.0000000E+00
   1.176000      0.0000000E+00
   1.188000      0.0000000E+00
   1.200000      0.0000000E+00
   1.212000      0.0000000E+00
   1.224000      0.0000000E+00
   1.236000      0.0000000E+00
   1.248000      0.0000000E+00
   1.260000      0.0000000E+00
   1.272000      0.0000000E+00
   1.284000      0.0000000E+00
   1.296000      0.0000000E+00
   1.308000      0.0000000E+00
   1.320000      0.0000000E+00
   1.332000      0.0000000E+00
   1.344000      0.0000000E+00
   1.356000      0.0000000E+00
   1.368000      0.0000000E+00
   1.380000      0.0000000E+00
   1.392000      0.0000000E+00
   1.404000      0.0000000E+00
   1.416000      0.0000000E+00
   1.428000      0.0000000E+00
   1.440000      0.0000000E+00
   1.452000      0.0000000E+00
   1.464000      0.0000000E+00
   1.476000      0.0000000E+00
   1.488000      0.0000000E+00
   1.500000      0.0000000E+00
   1.512000      0.0000000E+00
   1.524000      0.0000000E+00
   1.536000      0.0000000E+00
   1.548000      0.0000000E+00
   1.560000      0.0000000E+00
   1.572000      0.0000000E+00
   1.584000      0.0000000E+00
   1.596000      0.0000000E+00
   1.608000      0.0000000E+00
   1.620000      0.0000000E+00
   1.632000      0.0000000E+00
   1.644000      0.0000000E+00
   1.656000      0.0000000E+00
   1.668000      0.0000000E+00
   1.680000      0.0000000E+00
   1.692000      0.0000000E+00
   1.704000      0.0000000E+00
   1.716000      0.0000000E+00
   1.728000      0.0000000E+00
   1.740000      0.0000000E+00
   1.752000      0.0000000E+00
   1.764000      0.0000000E+00
   1.776000      0.0000000E+00
   1.788000      0.0000000E+00
   1.800000      0.0000000E+00
   1.812000      0.0000000E+00
   1.824000      0.0000000E+00
   1.836000      0.0000000E+00
   1.848000      0.0000000E+00
   1.860000      0.0000000E+00
   1.872000      0.0000000E+00
   1.884000      0.0000000E+00
   1.896000      0.0000000E+00
   1.908000      0.0000000E+00
   1.920000      0.0000000E+00
   1.932000      0.0000000E+00
   1.944000      0.0000000E+00
   1.956000      0.0000000E+00
   1.968000      0.0000000E+00
   1.980000      0.0000000E+00
   1.992000      0.0000000E+00
   2.004000      0.0000000E+00
   2.016000      0.0000000E+00
   2.028000      0.0000000E+00
   2.040000      0.0000000E+00
   2.052000      0.0000000E+00
   2.064000      0.0000000E+00
   2.076000      0.0000000E+00
   2.088000      0.0000000E+00
   2.100000      0.0000000E+00
   2.112000      0.0000000E+00
   2.124000      0.0000000E+00
   2.136000      0.0000000E+00
   2.148000      0.0000000E+00
   2.160000      0.0000000E+00
   2.172000      0.0000000E+00
   2.184000      0.0000000E+00
   2.196000      0.0000000E+00
   2.208000      2.6482431E-38
   2.220000      5.8394147E-38
   2.232000      1.1212909E-37
   2.244000      1.8555121E-37
   2.256000      2.5907601E-37
   2.268000      3.1126119E-37
   2.280000      3.3144287E-37
   2.292000      2.5890357E-37
   2.304000      7.5752525E-38
   2.316000     -1.4682194E-37
   2.328000     -3.6756776E-37
   2.340000     -5.2084735E-37
   2.352000     -4.7183074E-37
   2.364000     -1.0954931E-37
   2.376000      5.6782963E-37
   2.388000      1.4557714E-36
   2.400000      2.2878018E-36
   2.412000      2.8111080E-36
   2.424000      2.9094170E-36
   2.436000      2.2677404E-36
   2.448000      6.0223288E-37
   2.460000     -1.9954743E-36
   2.472000     -5.1418974E-36
   2.484000     -8.0572174E-36
   2.496000     -9.7530639E-36
   2.508000     -9.7482145E-36
   2.520000     -7.5352316E-36
   2.532000     -2.8362353E-36
   2.544000      4.2743576E-36
   2.556000      1.3272429E-35
   2.568000      2.2974152E-35
   2.580000      3.1680029E-35
   2.592000      3.7505869E-35
   2.604000      3.8410153E-35
   2.616000      3.2381199E-35
   2.628000      1.7703869E-35
   2.640000     -6.5770645E-36
   2.652000     -3.9955587E-35
   2.664000     -7.9881493E-35
   2.676000     -1.2113131E-34
   2.688000     -1.5604040E-34
   2.700000     -1.7475309E-34
   2.712000     -1.6654724E-34
   2.724000     -1.2162870E-34
   2.736000     -3.3650842E-35
   2.748000      9.7695301E-35
   2.760000      2.6418003E-34
   2.772000      4.4741514E-34
   2.784000      6.1844962E-34
   2.796000      7.3936919E-34
   2.808000      7.6716531E-34
   2.820000      6.6001377E-34
   2.832000      3.8568681E-34
   2.844000     -6.8755394E-35
   2.856000     -6.8728964E-34
   2.868000     -1.4171191E-33
   2.880000     -2.1647939E-33
   2.892000     -2.7984011E-33
   2.904000     -3.1576386E-33
   2.916000     -3.0728802E-33
   2.928000     -2.3931074E-33
   2.940000     -1.0208309E-33
   2.952000      1.0499491E-33
   2.964000      3.6989068E-33
   2.976000      6.6555447E-33
   2.988000      9.4948183E-33
   3.000000      1.1659910E-32
   3.012000      1.2517156E-32
   3.024000      1.1443917E-32
   3.036000      7.9446116E-33
   3.048000      1.7838375E-33
   3.060000     -6.8809200E-33
   3.072000     -1.7390275E-32
   3.084000     -2.8524978E-32
   3.096000     -3.8527218E-32
   3.108000     -4.5225685E-32
   3.120000     -4.6278851E-32
   3.132000     -3.9534426E-32
   3.144000     -2.3480432E-32
   3.156000      2.2622967E-33
   3.168000      3.6481344E-32
   3.180000      7.6041848E-32
   3.192000      1.1578505E-31
   3.204000      1.4875033E-31
   3.216000      1.6678793E-31
   3.228000      1.6158470E-31
   3.240000      1.2606332E-31
   3.252000      5.6040524E-32
   3.264000     -4.8049880E-32
   3.276000     -1.7964166E-31
   3.288000     -3.2505882E-31
   3.300000     -4.6343418E-31
   3.312000     -5.6785179E-31
   3.324000     -6.0794198E-31
   3.336000     -5.5397950E-31
   3.348000     -3.8228522E-31
   3.360000     -8.1436621E-32
   3.372000      3.4150739E-31
   3.384000      8.5581565E-31
   3.396000      1.4041378E-30
   3.408000      1.9030283E-30
   3.420000      2.2480135E-30
   3.432000      2.3239004E-30
   3.444000      2.0204124E-30
   3.456000      1.2524176E-30
   3.468000     -1.7018518E-32
   3.480000     -1.7535801E-30
   3.492000     -3.8324610E-30
   3.504000     -6.0273791E-30
   3.516000     -8.0124102E-30
   3.528000     -9.3806195E-30
   3.540000     -9.6820478E-30
   3.552000     -8.4814344E-30
   3.564000     -5.4330992E-30
   3.576000     -3.6696345E-31
   3.588000      6.6240179E-30
   3.600000      1.5108165E-29
   3.612000      2.4266937E-29
   3.624000      3.2891218E-29
   3.636000      3.9437385E-29
   3.648000      4.2154288E-29
   3.660000      3.9284288E-29
   3.672000      2.9330908E-29
   3.684000      1.1372962E-29
   3.696000     -1.4608222E-29
   3.708000     -4.7433364E-29
   3.720000     -8.4514952E-29
   3.732000     -1.2178890E-28
   3.744000     -1.5384159E-28
   3.756000     -1.7427446E-28
   3.768000     -1.7632693E-28
   3.780000     -1.5374630E-28
   3.792000     -1.0185307E-28
   3.804000     -1.8702161E-29
   3.816000      9.3803351E-29
   3.828000      2.2902552E-28
   3.840000      3.7512690E-28
   3.852000      5.1521356E-28
   3.864000      6.2823243E-28
   3.876000      6.9070410E-28
   3.888000      6.7927761E-28
   3.900000      5.7398105E-28
   3.912000      3.6191045E-28
   3.924000      4.0965339E-29
   3.936000     -3.7688244E-28
   3.948000     -8.6338342E-28
   3.960000     -1.3734767E-27
   3.972000     -1.8469558E-27
   3.984000     -2.2126720E-27
   3.996000     -2.3953245E-27
   4.008000     -2.3245298E-27
   4.020000     -1.9454600E-27
   4.032000     -1.2299785E-27
   4.044000     -1.8686777E-28
   4.056000      1.1304559E-27
   4.068000      2.6204103E-27
   4.080000      4.1354134E-27
   4.092000      5.4908571E-27
   4.104000      6.4813189E-27
   4.116000      6.9034851E-27
   4.128000      6.5841443E-27
   4.140000      5.4104349E-27
   4.152000      3.3585456E-27
   4.164000      5.1637475E-28
   4.176000     -2.9045052E-27
   4.188000     -6.5717799E-27
   4.200000     -1.0053294E-26
   4.212000     -1.2857142E-26
   4.224000     -1.4489706E-26
   4.236000     -1.4527556E-26
   4.248000     -1.2695933E-26
   4.260000     -8.9436882E-27
   4.272000     -3.5025166E-27
   4.284000      3.0826529E-27
   4.296000      9.9642338E-27
   4.308000      1.6052708E-26
   4.320000      2.0131572E-26
   4.332000      2.1023431E-26
   4.344000      1.7795927E-26
   4.356000      9.9868111E-27
   4.368000     -2.1807151E-27
   4.380000     -1.7628362E-26
   4.392000     -3.4338141E-26
   4.404000     -4.9391182E-26
   4.416000     -5.9161037E-26
   4.428000     -5.9679035E-26
   4.440000     -4.7168881E-26
   4.452000     -1.8722225E-26
   4.464000      2.6942016E-26
   4.476000      8.8720739E-26
   4.488000      1.6248306E-25
   4.500000      2.4066879E-25
   4.512000      3.1226142E-25
   4.524000      3.6325642E-25
   4.536000      3.7771392E-25
   4.548000      3.3942949E-25
   4.560000      2.3418327E-25
   4.572000      5.2434987E-26
   4.584000     -2.0776900E-25
   4.596000     -5.3800905E-25
   4.608000     -9.1724072E-25
   4.620000     -1.3105448E-24
   4.632000     -1.6693476E-24
   4.644000     -1.9335284E-24
   4.656000     -2.0357011E-24
   4.668000     -1.9077698E-24
   4.680000     -1.4895829E-24
   4.692000     -7.3919901E-25
   4.704000      3.5607776E-25
   4.716000      1.7690734E-24
   4.728000      3.4240050E-24
   4.740000      5.1912834E-24
   4.752000      6.8875335E-24
   4.764000      8.2823469E-24
   4.776000      9.1128218E-24
   4.788000      9.1063334E-24
   4.800000      8.0110332E-24
   4.812000      5.6325158E-24
   4.824000      1.8739194E-24
   4.836000     -3.2244830E-24
   4.848000     -9.4511256E-24
   4.860000     -1.6400073E-23
   4.872000     -2.3464854E-23
   4.884000     -2.9854551E-23
   4.896000     -3.4636273E-23
   4.908000     -3.6806057E-23
   4.920000     -3.5387316E-23
   4.932000     -2.9552509E-23
   4.944000     -1.8759762E-23
   4.956000     -2.8923451E-24
   4.968000      1.7614712E-23
   4.980000      4.1678942E-23
   4.992000      6.7524966E-23
   5.004000      9.2707426E-23
   5.016000      1.1421728E-22
   5.028000      1.2868032E-22
   5.040000      1.3264840E-22
   5.052000      1.2297304E-22
   5.064000      9.7238990E-23
   5.076000      5.4222960E-23
   5.088000     -5.6689682E-24
   5.100000     -8.0040358E-23
   5.112000     -1.6427994E-22
   5.124000     -2.5153270E-22
   5.136000     -3.3291717E-22
   5.148000     -3.9802438E-22
   5.160000     -4.3570971E-22
   5.172000     -4.3515920E-22
   5.184000     -3.8717450E-22
   5.196000     -2.8558507E-22
   5.208000     -1.2865752E-22
   5.220000      7.9655785E-23
   5.232000      3.2880747E-22
   5.244000      6.0126610E-22
   5.256000      8.7281166E-22
   5.268000      1.1136434E-21
   5.280000      1.2903627E-21
   5.292000      1.3688167E-21
   5.304000      1.3176806E-21
   5.316000      1.1125559E-21
   5.328000      7.4024380E-22
   5.340000      2.0276491E-22
   5.352000     -4.7937848E-22
   5.364000     -1.2652289E-21
   5.376000     -2.0931975E-21
   5.388000     -2.8831077E-21
   5.400000     -3.5407393E-21
   5.412000     -3.9649311E-21
   5.424000     -4.0570426E-21
   5.436000     -3.7322672E-21
   5.448000     -2.9319740E-21
   5.460000     -1.6359581E-21
   5.472000      1.2675532E-22
   5.484000      2.2700471E-21
   5.496000      4.6472917E-21
   5.508000      7.0537463E-21
   5.520000      9.2357656E-21
   5.532000      1.0907354E-20
   5.544000      1.1773874E-20
   5.556000      1.1561954E-20
   5.568000      1.0053693E-20
   5.580000      7.1224726E-21
   5.592000      2.7668366E-21
   5.604000     -2.8615885E-21
   5.616000     -9.4404532E-21
   5.628000     -1.6473446E-20
   5.640000     -2.3304953E-20
   5.652000     -2.9154953E-20
   5.664000     -3.3174873E-20
   5.676000     -3.4523013E-20
   5.688000     -3.2455798E-20
   5.700000     -2.6428679E-20
   5.712000     -1.6198056E-20
   5.724000     -1.9137195E-21
   5.736000      1.5810010E-20
   5.748000      3.5856554E-20
   5.760000      5.6613954E-20
   5.772000      7.6035334E-20
   5.784000      9.1758157E-20
   5.796000      1.0128261E-19
   5.808000      1.0220326E-19
   5.820000      9.2481371E-20
   5.832000      7.0738515E-20
   5.844000      3.6545612E-20
   5.856000     -9.3233449E-21
   5.868000     -6.4706565E-20
   5.880000     -1.2597267E-19
   5.892000     -1.8807213E-19
   5.904000     -2.4474555E-19
   5.916000     -2.8890066E-19
   5.928000     -3.1315616E-19
   5.940000     -3.1053193E-19
   5.952000     -2.7524758E-19
   5.964000     -2.0357093E-19
   5.976000     -9.4641896E-20
   5.988000      4.8816158E-20
   6.000000      2.1999261E-19
   6.012000      4.0778745E-19
   6.024000      5.9699403E-19
   6.036000      7.6893035E-19
   6.048000      9.0254917E-19
   6.060000      9.7601770E-19
   6.072000      9.6870863E-19
   6.084000      8.6349084E-19
   6.096000      6.4915945E-19
   6.108000      3.2279237E-19
   6.120000     -1.0820757E-19
   6.132000     -6.2465040E-19
   6.144000     -1.1949360E-18
   6.156000     -1.7755016E-18
   6.168000     -2.3125151E-18
   6.180000     -2.7449031E-18
   6.192000     -3.0086939E-18
   6.204000     -3.0425235E-18
   6.216000     -2.7940143E-18
   6.228000     -2.2265946E-18
   6.240000     -1.3261974E-18
   6.252000     -1.0718328E-19
   6.264000      1.3832218E-18
   6.276000      3.0626881E-18
   6.288000      4.8143785E-18
   6.300000      6.4908788E-18
   6.312000      7.9217433E-18
   6.324000      8.9246551E-18
   6.336000      9.3198638E-18
   6.348000      8.9471974E-18
   6.360000      7.6845716E-18
   6.372000      5.4665844E-18
   6.384000      2.3015049E-18
   6.396000     -1.7151915E-18
   6.408000     -6.3926342E-18
   6.420000     -1.1443443E-17
   6.432000     -1.6491113E-17
   6.444000     -2.1086786E-17
   6.456000     -2.4735633E-17
   6.468000     -2.6932241E-17
   6.480000     -2.7203442E-17
   6.492000     -2.5156147E-17
   6.504000     -2.0526803E-17
   6.516000     -1.3228361E-17
   6.528000     -3.3901855E-18
   6.540000      8.6139065E-18
   6.552000      2.2154018E-17
   6.564000      3.6352854E-17
   6.576000      5.0117487E-17
   6.588000      6.2195412E-17
   6.600000      7.1254165E-17
   6.612000      7.5981641E-17
   6.624000      7.5201934E-17
   6.636000      6.7999256E-17
   6.648000      5.3840594E-17
   6.660000      3.2686366E-17
   6.672000      5.0775506E-18
   6.684000     -2.7812079E-17
   6.696000     -6.4168741E-17
   6.708000     -1.0158444E-16
   6.720000     -1.3716031E-16
   6.732000     -1.6766827E-16
   6.744000     -1.8976603E-16
   6.756000     -2.0025639E-16
   6.768000     -1.9637542E-16
   6.780000     -1.7608988E-16
   6.792000     -1.3838047E-16
   6.804000     -8.3484653E-17
   6.816000     -1.3072940E-17
   6.828000      6.9666547E-17
   6.840000      1.6005598E-16
   6.852000      2.5208256E-16
   6.864000      3.3868628E-16
   6.876000      4.1217616E-16
   6.888000      4.6475994E-16
   6.900000      4.8915867E-16
   6.912000      4.7926929E-16
   6.924000      4.3082560E-16
   6.936000      3.4200456E-16
   6.948000      2.1391910E-16
   6.960000      5.0941653E-17
   6.972000     -1.3919138E-16
   6.984000     -3.4553362E-16
   6.996000     -5.5436300E-16
   7.008000     -7.4989907E-16
   7.020000     -9.1528263E-16
   7.032000     -1.0337727E-15
   7.044000     -1.0900911E-15
   7.056000     -1.0718248E-15
   7.068000     -9.7077959E-16
   7.080000     -7.8416531E-16
   7.092000     -5.1549890E-16
   7.104000     -1.7511167E-16
   7.116000      2.1982781E-16
   7.128000      6.4583853E-16
   7.140000      1.0742248E-15
   7.152000      1.4727270E-15
   7.164000      1.8076581E-15
   7.176000      2.0464106E-15
   7.188000      2.1601697E-15
   7.200000      2.1266395E-15
   7.212000      1.9325556E-15
   7.224000      1.5757530E-15
   7.236000      1.0665653E-15
   7.248000      4.2836492E-16
   7.260000     -3.0290377E-16
   7.272000     -1.0802731E-15
   7.284000     -1.8483801E-15
   7.296000     -2.5470757E-15
   7.308000     -3.1158293E-15
   7.320000     -3.4986427E-15
   7.332000     -3.6491272E-15
   7.344000     -3.5353228E-15
   7.356000     -3.1438299E-15
   7.368000     -2.4828164E-15
   7.380000     -1.5835202E-15
   7.392000     -4.9994701E-16
   7.404000      6.9342162E-16
   7.416000      1.9059340E-15
   7.428000      3.0369549E-15
   7.440000      3.9836044E-15
   7.452000      4.6495663E-15
   7.464000      4.9543088E-15
   7.476000      4.8419635E-15
   7.488000      4.2890365E-15
   7.500000      3.3101251E-15
   7.512000      1.9608904E-15
   7.524000      3.3767609E-16
   7.536000     -1.4265954E-15
   7.548000     -3.1703706E-15
   7.560000     -4.7150305E-15
   7.572000     -5.8795005E-15
   7.584000     -6.4970044E-15
   7.596000     -6.4327328E-15
   7.608000     -5.6009711E-15
   7.620000     -3.9800676E-15
   7.632000     -1.6236106E-15
   7.644000      1.3337043E-15
   7.656000      4.6767882E-15
   7.668000      8.1183178E-15
   7.680000      1.1314667E-14
   7.692000      1.3889299E-14
   7.704000      1.5462632E-14
   7.716000      1.5686679E-14
   7.728000      1.4282107E-14
   7.740000      1.1074841E-14
   7.752000      6.0289239E-15
   7.764000     -7.2773286E-16
   7.776000     -8.8880234E-15
   7.788000     -1.7963566E-14
   7.800000     -2.7298022E-14
   7.812000     -3.6096926E-14
   7.824000     -4.3473983E-14
   7.836000     -4.8512311E-14
   7.848000     -5.0337762E-14
   7.860000     -4.8199902E-14
   7.872000     -4.1555094E-14
   7.884000     -3.0145110E-14
   7.896000     -1.4064159E-14
   7.908000      6.1928413E-15
   7.920000      2.9707411E-14
   7.932000      5.5145589E-14
   7.944000      8.0800817E-14
   7.956000      1.0467303E-13
   7.968000      1.2458288E-13
   7.980000      1.3831704E-13
   7.992000      1.4379738E-13
   8.004000      1.3926417E-13
   8.016000      1.2346051E-13
   8.028000      9.5804461E-14
   8.040000      5.6532897E-14
   8.052000      6.8027926E-15
   8.064000     -5.1264165E-14
   8.076000     -1.1460457E-13
   8.088000     -1.7931125E-13
   8.100000     -2.4080876E-13
   8.112000     -2.9410372E-13
   8.124000     -3.3410012E-13
   8.136000     -3.5596509E-13
   8.148000     -3.5552388E-13
   8.160000     -3.2965809E-13
   8.172000     -2.7667793E-13
   8.184000     -1.9663718E-13
   8.196000     -9.1560460E-14
   8.208000      3.4445388E-14
   8.220000      1.7521890E-13
   8.232000      3.2272535E-13
   8.244000      4.6739831E-13
   8.256000      5.9863529E-13
   8.268000      7.0543105E-13
   8.280000      7.7711866E-13
   8.292000      8.0417644E-13
   8.304000      7.7905184E-13
   8.316000      6.9694326E-13
   8.328000      5.5647799E-13
   8.340000      3.6022658E-13
   8.352000      1.1499497E-13
   8.364000     -1.6815053E-13
   8.376000     -4.7415999E-13
   8.388000     -7.8459228E-13
   8.400000     -1.0785176E-12
   8.412000     -1.3337006E-12
   8.424000     -1.5280127E-12
   8.436000     -1.6409977E-12
   8.448000     -1.6554957E-12
   8.460000     -1.5592212E-12
   8.472000     -1.3461707E-12
   8.484000     -1.0177485E-12
   8.496000     -5.8349549E-13
   8.508000     -6.1326683E-14
   8.520000      5.2279139E-13
   8.532000      1.1357641E-12
   8.544000      1.7388916E-12
   8.556000      2.2899490E-12
   8.568000      2.7457366E-12
   8.580000      3.0649734E-12
   8.592000      3.2113656E-12
   8.604000      3.1566535E-12
   8.616000      2.8834203E-12
   8.628000      2.3874457E-12
   8.640000      1.6793834E-12
   8.652000      7.8558183E-13
   8.664000     -2.5210267E-13
   8.676000     -1.3775915E-12
   8.688000     -2.5229922E-12
   8.700000     -3.6120796E-12
   8.712000     -4.5647162E-12
   8.724000     -5.3019989E-12
   8.736000     -5.7518539E-12
   8.748000     -5.8547316E-12
   8.760000     -5.5690123E-12
   8.772000     -4.8757266E-12
   8.784000     -3.7821781E-12
   8.796000     -2.3241207E-12
   8.808000     -5.6616951E-13
   8.820000      1.3997408E-12
   8.832000      3.4579607E-12
   8.844000      5.4747452E-12
   8.856000      7.3057055E-12
   8.868000      8.8047607E-12
   8.880000      9.8341309E-12
   8.892000      1.0274764E-11
   8.904000      1.0036550E-11
   8.916000      9.0675661E-12
   8.928000      7.3616261E-12
   8.940000      4.9634342E-12
   8.952000      1.9707506E-12
   8.964000     -1.4668985E-12
   8.976000     -5.1532194E-12
   8.988000     -8.8539020E-12
   9.000000     -1.2308900E-11
   9.012000     -1.5247761E-11
   9.024000     -1.7407268E-11
   9.036000     -1.8550401E-11
   9.048000     -1.8485494E-11
   9.060000     -1.7084258E-11
   9.072000     -1.4297332E-11
   9.084000     -1.0166075E-11
   9.096000     -4.8293765E-12
   9.108000      1.4754662E-12
   9.120000      8.4184690E-12
   9.132000      1.5589566E-11
   9.144000      2.2517958E-11
   9.156000      2.8697544E-11
   9.168000      3.3617390E-11
   9.180000      3.6795639E-11
   9.192000      3.7815005E-11
   9.204000      3.6357525E-11
   9.216000      3.2236314E-11
   9.228000      2.5421758E-11
   9.240000      1.6059971E-11
   9.252000      4.4814426E-12
   9.264000     -8.8016174E-12
   9.276000     -2.3110179E-11
   9.288000     -3.7625767E-11
   9.300000     -5.1429656E-11
   9.312000     -6.3552524E-11
   9.324000     -7.3032219E-11
   9.336000     -7.8976700E-11
   9.348000     -8.0628434E-11
   9.360000     -7.7426239E-11
   9.372000     -6.9060278E-11
   9.384000     -5.5515974E-11
   9.396000     -3.7102984E-11
   9.408000     -1.4465971E-11
   9.420000      1.1425172E-11
   9.432000      3.9306846E-11
   9.444000      6.7674935E-11
   9.456000      9.4858114E-11
   9.468000      1.1910821E-10
   9.480000      1.3870345E-10
   9.492000      1.5205874E-10
   9.504000      1.5783665E-10
   9.516000      1.5505190E-10
   9.528000      1.4316212E-10
   9.540000      1.2213759E-10
   9.552000      9.2504081E-11
   9.564000      5.5353503E-11
   9.576000      1.2319119E-11
   9.588000     -3.4485845E-11
   9.600000     -8.2565295E-11
   9.612000     -1.2916947E-10
   9.624000     -1.7145046E-10
   9.636000     -2.0663590E-10
   9.648000     -2.3221092E-10
   9.660000     -2.4609706E-10
   9.672000     -2.4681618E-10
   9.684000     -2.3362737E-10
   9.696000     -2.0662545E-10
   9.708000     -1.6679216E-10
   9.720000     -1.1599199E-10
   9.732000     -5.6909449E-11
   9.744000      7.0732526E-12
   9.756000      7.2054293E-11
   9.768000      1.3383887E-10
   9.780000      1.8820298E-10
   9.792000      2.3117956E-10
   9.804000      2.5934951E-10
   9.816000      2.7011862E-10
   9.828000      2.6196015E-10
   9.840000      2.3460428E-10
   9.852000      1.8915668E-10
   9.864000      1.2813248E-10
   9.876000      5.5395979E-11
   9.888000     -2.3998210E-11
   9.900000     -1.0406006E-10
   9.912000     -1.7820694E-10
   9.924000     -2.3967858E-10
   9.936000     -2.8200325E-10
   9.948000     -2.9948818E-10
   9.960000     -2.8770394E-10
   9.972000     -2.4393007E-10
   9.984000     -1.6752871E-10
   9.996000     -6.0214819E-11
   10.00800      7.3804435E-11
   10.02000      2.2784220E-10
   10.03200      3.9291018E-10
   10.04400      5.5806670E-10
   10.05600      7.1092787E-10
   10.06800      8.3832513E-10
   10.08000      9.2708080E-10
   10.09200      9.6486352E-10
   10.10400      9.4107899E-10
   10.11600      8.4774132E-10
   10.12800      6.8027267E-10
   10.14000      4.3817275E-10
   10.15200      1.2550792E-10
   10.16400     -2.4882676E-10
   10.17600     -6.7110845E-10
   10.18800     -1.1230734E-09
   10.20000     -1.5824977E-09
   10.21200     -2.0240636E-09
   10.22400     -2.4204854E-09
   10.23600     -2.7438505E-09
   10.24800     -2.9671179E-09
   10.26000     -3.0657010E-09
   10.27200     -3.0190561E-09
   10.28400     -2.8121800E-09
   10.29600     -2.4369384E-09
   10.30800     -1.8931299E-09
   10.32000     -1.1892122E-09
   10.33200     -3.4262906E-10
   10.34400      6.2031175E-10
   10.35600      1.6650307E-09
   10.36800      2.7497407E-09
   10.38000      3.8269565E-09
   10.39200      4.8453983E-09
   10.40400      5.7522187E-09
   10.41600      6.4954526E-09
   10.42800      7.0265798E-09
   10.44000      7.3030817E-09
   10.45200      7.2908533E-09
   10.46400      6.9663555E-09
   10.47600      6.3183787E-09
   10.48800      5.3493130E-09
   10.50000      4.0758530E-09
   10.51200      2.5290614E-09
   10.52400      7.5377488E-10
   10.53600     -1.1926522E-09
   10.54800     -3.2422234E-09
   10.56000     -5.3187357E-09
   10.57200     -7.3406730E-09
   10.58400     -9.2244417E-09
   10.59600     -1.0887802E-08
   10.60800     -1.2253348E-08
   10.62000     -1.3251885E-08
   10.63200     -1.3825538E-08
   10.64400     -1.3930455E-08
   10.65600     -1.3538983E-08
   10.66800     -1.2641211E-08
   10.68000     -1.1245800E-08
   10.69200     -9.3800807E-09
   10.70400     -7.0893806E-09
   10.71600     -4.4356505E-09
   10.72800     -1.4954122E-09
   10.74000      1.6428515E-09
   10.75200      4.8817688E-09
   10.76400      8.1184677E-09
   10.77600      1.1248143E-08
   10.78800      1.4167648E-08
   10.80000      1.6778968E-08
   10.81200      1.8992434E-08
   10.82400      2.0729571E-08
   10.83600      2.1925457E-08
   10.84800      2.2530559E-08
   10.86000      2.2511967E-08
   10.87200      2.1854028E-08
   10.88400      2.0558407E-08
   10.89600      1.8643577E-08
   10.90800      1.6143868E-08
   10.92000      1.3108099E-08
   10.93200      9.5979127E-09
   10.94400      5.6859322E-09
   10.95600      1.4538050E-09
   10.96800     -3.0097442E-09
   10.98000     -7.6107707E-09
   10.99200     -1.2251813E-08
   11.00400     -1.6833399E-08
   11.01600     -2.1255314E-08
   11.02800     -2.5417679E-08
   11.04000     -2.9221789E-08
   11.05200     -3.2570867E-08
   11.06400     -3.5370693E-08
   11.07600     -3.7530313E-08
   11.08800     -3.8962828E-08
   11.10000     -3.9586432E-08
   11.11200     -3.9325730E-08
   11.12400     -3.8113491E-08
   11.13600     -3.5892842E-08
   11.14800     -3.2619926E-08
   11.16000     -2.8267044E-08
   11.17200     -2.2826242E-08
   11.18400     -1.6313189E-08
   11.19600     -8.7712566E-09
   11.20800     -2.7554975E-10
   11.22000      9.0633323E-09
   11.23200      1.9096095E-08
   11.24400      2.9632439E-08
   11.25600      4.0439943E-08
   11.26800      5.1244530E-08
   11.28000      6.1732742E-08
   11.29200      7.1556173E-08
   11.30400      8.0338204E-08
   11.31600      8.7683233E-08
   11.32800      9.3188284E-08
   11.34000      9.6457100E-08
   11.35200      9.7116221E-08
   11.36400      9.4832814E-08
   11.37600      8.9333575E-08
   11.38800      8.0424122E-08
   11.40000      6.8007857E-08
   11.41200      5.2103463E-08
   11.42400      3.2860019E-08
   11.43600      1.0568560E-08
   11.44800     -1.4330888E-08
   11.46000     -4.1247798E-08
   11.47200     -6.9445974E-08