 -0.1200000      0.0000000E+00
 -0.1080000      0.0000000E+00
 -9.6000001E-02  0.0000000E+00
 -8.3999999E-02  0.0000000E+00
 -7.1999997E-02  0.0000000E+00
 -5.9999999E-02  0.0000000E+00
 -4.8000000E-02  0.0000000E+00
 -3.5999998E-02  0.0000000E+00
 -2.4000000E-02  0.0000000E+00
 -1.2000000E-02  0.0000000E+00
  6.9388939E-18  0.0000000E+00
  1.2000000E-02  0.0000000E+00
  2.4000000E-02  0.0000000E+00
  3.5999998E-02  0.0000000E+00
  4.8000000E-02  0.0000000E+00
  5.9999999E-02  0.0000000E+00
  7.1999997E-02  0.0000000E+00
  8.3999999E-02  0.0000000E+00
  9.6000001E-02  0.0000000E+00
  0.1080000      0.0000000E+00
  0.1200000      0.0000000E+00
  0.1320000      0.0000000E+00
  0.1440000      0.0000000E+00
  0.1560000      0.0000000E+00
  0.1680000      0.0000000E+00
  0.1800000      0.0000000E+00
  0.1920000      0.0000000E+00
  0.2040000      0.0000000E+00
  0.2160000      0.0000000E+00
  0.2280000      0.0000000E+00
  0.2400000      0.0000000E+00
  0.2520000      0.0000000E+00
  0.2640000      0.0000000E+00
  0.2760000      0.0000000E+00
  0.2880000      0.0000000E+00
  0.3000000      0.0000000E+00
  0.3120000      0.0000000E+00
  0.3240000      0.0000000E+00
  0.3360000      0.0000000E+00
  0.3480000      0.0000000E+00
  0.3600000      0.0000000E+00
  0.3720000      0.0000000E+00
  0.3840000      0.0000000E+00
  0.3960000      0.0000000E+00
  0.4080000      0.0000000E+00
  0.4200000      0.0000000E+00
  0.4320000      0.0000000E+00
  0.4440000      0.0000000E+00
  0.4560000      0.0000000E+00
  0.4680000      0.0000000E+00
  0.4800000      0.0000000E+00
  0.4920000      0.0000000E+00
  0.5040000      0.0000000E+00
  0.5160000      0.0000000E+00
  0.5280000      0.0000000E+00
  0.5400000      0.0000000E+00
  0.5520000      0.0000000E+00
  0.5640000      0.0000000E+00
  0.5760000      0.0000000E+00
  0.5880000      0.0000000E+00
  0.6000000      0.0000000E+00
  0.6120000      0.0000000E+00
  0.6240000      0.0000000E+00
  0.6360000      0.0000000E+00
  0.6480000      0.0000000E+00
  0.6600000      0.0000000E+00
  0.6720000      0.0000000E+00
  0.6840000      0.0000000E+00
  0.6960000      0.0000000E+00
  0.7080000      0.0000000E+00
  0.7200000      0.0000000E+00
  0.7320000      0.0000000E+00
  0.7440000      0.0000000E+00
  0.7560000      0.0000000E+00
  0.7680000      0.0000000E+00
  0.7800000      0.0000000E+00
  0.7920000      0.0000000E+00
  0.8040000      0.0000000E+00
  0.8160000      0.0000000E+00
  0.8280000      0.0000000E+00
  0.8400000      0.0000000E+00
  0.8520000      0.0000000E+00
  0.8640000      0.0000000E+00
  0.8760000      0.0000000E+00
  0.8880000      0.0000000E+00
  0.9000000      0.0000000E+00
  0.9120000      0.0000000E+00
  0.9240000      0.0000000E+00
  0.9360000      0.0000000E+00
  0.9480000      0.0000000E+00
  0.9600000      0.0000000E+00
  0.9720000      0.0000000E+00
  0.9840000      0.0000000E+00
  0.9960000      0.0000000E+00
   1.008000      0.0000000E+00
   1.020000      0.0000000E+00
   1.032000      0.0000000E+00
   1.044000      0.0000000E+00
   1.056000      0.0000000E+00
   1.068000      0.0000000E+00
   1.080000      0.0000000E+00
   1.092000      0.0000000E+00
   1.104000      0.0000000E+00
   1.116000      0.0000000E+00
   1.128000      0.0000000E+00
   1.140000      0.0000000E+00
   1.152000      0.0000000E+00
   1.164000      0.0000000E+00
   1.176000      0.0000000E+00
   1.188000      0.0000000E+00
   1.200000      0.0000000E+00
   1.212000      0.0000000E+00
   1.224000      0.0000000E+00
   1.236000      0.0000000E+00
   1.248000      0.0000000E+00
   1.260000      0.0000000E+00
   1.272000      0.0000000E+00
   1.284000      0.0000000E+00
   1.296000      0.0000000E+00
   1.308000      0.0000000E+00
   1.320000      0.0000000E+00
   1.332000      0.0000000E+00
   1.344000      0.0000000E+00
   1.356000      0.0000000E+00
   1.368000      0.0000000E+00
   1.380000      0.0000000E+00
   1.392000      0.0000000E+00
   1.404000      0.0000000E+00
   1.416000      0.0000000E+00
   1.428000      0.0000000E+00
   1.440000      0.0000000E+00
   1.452000      0.0000000E+00
   1.464000      0.0000000E+00
   1.476000      0.0000000E+00
   1.488000      0.0000000E+00
   1.500000      0.0000000E+00
   1.512000      0.0000000E+00
   1.524000      0.0000000E+00
   1.536000      0.0000000E+00
   1.548000      0.0000000E+00
   1.560000      0.0000000E+00
   1.572000      0.0000000E+00
   1.584000      0.0000000E+00
   1.596000      0.0000000E+00
   1.608000      0.0000000E+00
   1.620000      0.0000000E+00
   1.632000      0.0000000E+00
   1.644000      0.0000000E+00
   1.656000      0.0000000E+00
   1.668000      0.0000000E+00
   1.680000      0.0000000E+00
   1.692000      0.0000000E+00
   1.704000      0.0000000E+00
   1.716000      0.0000000E+00
   1.728000      0.0000000E+00
   1.740000      0.0000000E+00
   1.752000      0.0000000E+00
   1.764000      0.0000000E+00
   1.776000      0.0000000E+00
   1.788000      0.0000000E+00
   1.800000      0.0000000E+00
   1.812000      0.0000000E+00
   1.824000      0.0000000E+00
   1.836000      0.0000000E+00
   1.848000      0.0000000E+00
   1.860000      0.0000000E+00
   1.872000      0.0000000E+00
   1.884000      0.0000000E+00
   1.896000      0.0000000E+00
   1.908000      0.0000000E+00
   1.920000      0.0000000E+00
   1.932000      0.0000000E+00
   1.944000      0.0000000E+00
   1.956000      0.0000000E+00
   1.968000      0.0000000E+00
   1.980000      0.0000000E+00
   1.992000      0.0000000E+00
   2.004000      0.0000000E+00
   2.016000      0.0000000E+00
   2.028000      0.0000000E+00
   2.040000      0.0000000E+00
   2.052000      0.0000000E+00
   2.064000      0.0000000E+00
   2.076000      0.0000000E+00
   2.088000      0.0000000E+00
   2.100000      0.0000000E+00
   2.112000      0.0000000E+00
   2.124000      0.0000000E+00
   2.136000      0.0000000E+00
   2.148000      0.0000000E+00
   2.160000      0.0000000E+00
   2.172000      0.0000000E+00
   2.184000      0.0000000E+00
   2.196000      0.0000000E+00
   2.208000      0.0000000E+00
   2.220000      0.0000000E+00
   2.232000      0.0000000E+00
   2.244000      0.0000000E+00
   2.256000      0.0000000E+00
   2.268000      0.0000000E+00
   2.280000      0.0000000E+00
   2.292000      0.0000000E+00
   2.304000      0.0000000E+00
   2.316000      0.0000000E+00
   2.328000      0.0000000E+00
   2.340000      0.0000000E+00
   2.352000      0.0000000E+00
   2.364000      0.0000000E+00
   2.376000      0.0000000E+00
   2.388000      0.0000000E+00
   2.400000      0.0000000E+00
   2.412000      0.0000000E+00
   2.424000      0.0000000E+00
   2.436000      0.0000000E+00
   2.448000      0.0000000E+00
   2.460000      0.0000000E+00
   2.472000      0.0000000E+00
   2.484000      0.0000000E+00
   2.496000      0.0000000E+00
   2.508000      0.0000000E+00
   2.520000      0.0000000E+00
   2.532000      0.0000000E+00
   2.544000      0.0000000E+00
   2.556000      0.0000000E+00
   2.568000      0.0000000E+00
   2.580000      0.0000000E+00
   2.592000      0.0000000E+00
   2.604000      0.0000000E+00
   2.616000      0.0000000E+00
   2.628000      0.0000000E+00
   2.640000      0.0000000E+00
   2.652000      0.0000000E+00
   2.664000      0.0000000E+00
   2.676000      0.0000000E+00
   2.688000      0.0000000E+00
   2.700000      0.0000000E+00
   2.712000      0.0000000E+00
   2.724000      0.0000000E+00
   2.736000      0.0000000E+00
   2.748000      0.0000000E+00
   2.760000      0.0000000E+00
   2.772000      0.0000000E+00
   2.784000      0.0000000E+00
   2.796000      0.0000000E+00
   2.808000      0.0000000E+00
   2.820000      0.0000000E+00
   2.832000      0.0000000E+00
   2.844000      0.0000000E+00
   2.856000      0.0000000E+00
   2.868000      0.0000000E+00
   2.880000      0.0000000E+00
   2.892000      0.0000000E+00
   2.904000      0.0000000E+00
   2.916000      0.0000000E+00
   2.928000      0.0000000E+00
   2.940000      0.0000000E+00
   2.952000      0.0000000E+00
   2.964000      0.0000000E+00
   2.976000      0.0000000E+00
   2.988000      0.0000000E+00
   3.000000      0.0000000E+00
   3.012000      0.0000000E+00
   3.024000      0.0000000E+00
   3.036000      0.0000000E+00
   3.048000      0.0000000E+00
   3.060000      0.0000000E+00
   3.072000      0.0000000E+00
   3.084000      0.0000000E+00
   3.096000      0.0000000E+00
   3.108000      0.0000000E+00
   3.120000      0.0000000E+00
   3.132000      0.0000000E+00
   3.144000      0.0000000E+00
   3.156000      0.0000000E+00
   3.168000      0.0000000E+00
   3.180000      0.0000000E+00
   3.192000      0.0000000E+00
   3.204000      0.0000000E+00
   3.216000      0.0000000E+00
   3.228000      0.0000000E+00
   3.240000      0.0000000E+00
   3.252000      0.0000000E+00
   3.264000      0.0000000E+00
   3.276000      0.0000000E+00
   3.288000      0.0000000E+00
   3.300000      0.0000000E+00
   3.312000      0.0000000E+00
   3.324000      0.0000000E+00
   3.336000      0.0000000E+00
   3.348000      0.0000000E+00
   3.360000      0.0000000E+00
   3.372000      0.0000000E+00
   3.384000      0.0000000E+00
   3.396000      0.0000000E+00
   3.408000      0.0000000E+00
   3.420000      0.0000000E+00
   3.432000      0.0000000E+00
   3.444000      0.0000000E+00
   3.456000      0.0000000E+00
   3.468000      0.0000000E+00
   3.480000      0.0000000E+00
   3.492000      0.0000000E+00
   3.504000      0.0000000E+00
   3.516000      0.0000000E+00
   3.528000      0.0000000E+00
   3.540000      0.0000000E+00
   3.552000      0.0000000E+00
   3.564000      0.0000000E+00
   3.576000      0.0000000E+00
   3.588000      0.0000000E+00
   3.600000      0.0000000E+00
   3.612000      0.0000000E+00
   3.624000      0.0000000E+00
   3.636000      0.0000000E+00
   3.648000      0.0000000E+00
   3.660000      0.0000000E+00
   3.672000      0.0000000E+00
   3.684000      0.0000000E+00
   3.696000      0.0000000E+00
   3.708000      0.0000000E+00
   3.720000      0.0000000E+00
   3.732000      0.0000000E+00
   3.744000      0.0000000E+00
   3.756000      0.0000000E+00
   3.768000      0.0000000E+00
   3.780000      0.0000000E+00
   3.792000      0.0000000E+00
   3.804000      0.0000000E+00
   3.816000      0.0000000E+00
   3.828000      0.0000000E+00
   3.840000      0.0000000E+00
   3.852000      0.0000000E+00
   3.864000      0.0000000E+00
   3.876000      0.0000000E+00
   3.888000      0.0000000E+00
   3.900000      0.0000000E+00
   3.912000      0.0000000E+00
   3.924000      0.0000000E+00
   3.936000      0.0000000E+00
   3.948000      0.0000000E+00
   3.960000      0.0000000E+00
   3.972000      0.0000000E+00
   3.984000      0.0000000E+00
   3.996000      0.0000000E+00
   4.008000      0.0000000E+00
   4.020000      0.0000000E+00
   4.032000      0.0000000E+00
   4.044000      0.0000000E+00
   4.056000      0.0000000E+00
   4.068000      0.0000000E+00
   4.080000      0.0000000E+00
   4.092000      0.0000000E+00
   4.104000      0.0000000E+00
   4.116000      0.0000000E+00
   4.128000      0.0000000E+00
   4.140000      0.0000000E+00
   4.152000      0.0000000E+00
   4.164000      0.0000000E+00
   4.176000      0.0000000E+00
   4.188000      0.0000000E+00
   4.200000      0.0000000E+00
   4.212000      0.0000000E+00
   4.224000      0.0000000E+00
   4.236000      0.0000000E+00
   4.248000      0.0000000E+00
   4.260000      0.0000000E+00
   4.272000      0.0000000E+00
   4.284000      0.0000000E+00
   4.296000      0.0000000E+00
   4.308000      0.0000000E+00
   4.320000      0.0000000E+00
   4.332000      0.0000000E+00
   4.344000      0.0000000E+00
   4.356000      0.0000000E+00
   4.368000      0.0000000E+00
   4.380000      0.0000000E+00
   4.392000      0.0000000E+00
   4.404000      0.0000000E+00
   4.416000      0.0000000E+00
   4.428000      0.0000000E+00
   4.440000      0.0000000E+00
   4.452000      0.0000000E+00
   4.464000      0.0000000E+00
   4.476000      0.0000000E+00
   4.488000      0.0000000E+00
   4.500000      0.0000000E+00
   4.512000      0.0000000E+00
   4.524000      0.0000000E+00
   4.536000      0.0000000E+00
   4.548000      0.0000000E+00
   4.560000      0.0000000E+00
   4.572000      0.0000000E+00
   4.584000      0.0000000E+00
   4.596000      0.0000000E+00
   4.608000      0.0000000E+00
   4.620000      0.0000000E+00
   4.632000      0.0000000E+00
   4.644000      0.0000000E+00
   4.656000      0.0000000E+00
   4.668000      0.0000000E+00
   4.680000      0.0000000E+00
   4.692000      0.0000000E+00
   4.704000      0.0000000E+00
   4.716000      0.0000000E+00
   4.728000      0.0000000E+00
   4.740000      0.0000000E+00
   4.752000      0.0000000E+00
   4.764000      0.0000000E+00
   4.776000      0.0000000E+00
   4.788000      0.0000000E+00
   4.800000      0.0000000E+00
   4.812000      0.0000000E+00
   4.824000      0.0000000E+00
   4.836000      0.0000000E+00
   4.848000      0.0000000E+00
   4.860000      0.0000000E+00
   4.872000      0.0000000E+00
   4.884000      0.0000000E+00
   4.896000      0.0000000E+00
   4.908000      0.0000000E+00
   4.920000      0.0000000E+00
   4.932000      0.0000000E+00
   4.944000      0.0000000E+00
   4.956000      0.0000000E+00
   4.968000      0.0000000E+00
   4.980000      0.0000000E+00
   4.992000      0.0000000E+00
   5.004000      0.0000000E+00
   5.016000      0.0000000E+00
   5.028000      0.0000000E+00
   5.040000      0.0000000E+00
   5.052000      0.0000000E+00
   5.064000      0.0000000E+00
   5.076000      0.0000000E+00
   5.088000      0.0000000E+00
   5.100000      0.0000000E+00
   5.112000      0.0000000E+00
   5.124000      0.0000000E+00
   5.136000      0.0000000E+00
   5.148000      0.0000000E+00
   5.160000      0.0000000E+00
   5.172000      0.0000000E+00
   5.184000      0.0000000E+00
   5.196000      0.0000000E+00
   5.208000      0.0000000E+00
   5.220000      0.0000000E+00
   5.232000      0.0000000E+00
   5.244000      0.0000000E+00
   5.256000      0.0000000E+00
   5.268000      0.0000000E+00
   5.280000      0.0000000E+00
   5.292000      0.0000000E+00
   5.304000      0.0000000E+00
   5.316000      0.0000000E+00
   5.328000      0.0000000E+00
   5.340000      0.0000000E+00
   5.352000      0.0000000E+00
   5.364000      0.0000000E+00
   5.376000      0.0000000E+00
   5.388000      0.0000000E+00
   5.400000      0.0000000E+00
   5.412000      0.0000000E+00
   5.424000      0.0000000E+00
   5.436000      0.0000000E+00
   5.448000      0.0000000E+00
   5.460000      0.0000000E+00
   5.472000      0.0000000E+00
   5.484000      0.0000000E+00
   5.496000      0.0000000E+00
   5.508000      0.0000000E+00
   5.520000      0.0000000E+00
   5.532000      0.0000000E+00
   5.544000      0.0000000E+00
   5.556000      0.0000000E+00
   5.568000      0.0000000E+00
   5.580000      0.0000000E+00
   5.592000      0.0000000E+00
   5.604000      0.0000000E+00
   5.616000      0.0000000E+00
   5.628000      0.0000000E+00
   5.640000      0.0000000E+00
   5.652000      0.0000000E+00
   5.664000      0.0000000E+00
   5.676000      0.0000000E+00
   5.688000      0.0000000E+00
   5.700000      0.0000000E+00
   5.712000      0.0000000E+00
   5.724000      0.0000000E+00
   5.736000      0.0000000E+00
   5.748000      0.0000000E+00
   5.760000      0.0000000E+00
   5.772000      0.0000000E+00
   5.784000      0.0000000E+00
   5.796000      0.0000000E+00
   5.808000      0.0000000E+00
   5.820000      0.0000000E+00
   5.832000      0.0000000E+00
   5.844000      0.0000000E+00
   5.856000      0.0000000E+00
   5.868000      0.0000000E+00
   5.880000      0.0000000E+00
   5.892000      0.0000000E+00
   5.904000      0.0000000E+00
   5.916000      0.0000000E+00
   5.928000      0.0000000E+00
   5.940000      0.0000000E+00
   5.952000      0.0000000E+00
   5.964000      0.0000000E+00
   5.976000      0.0000000E+00
   5.988000      0.0000000E+00
   6.000000      0.0000000E+00
   6.012000      0.0000000E+00
   6.024000      0.0000000E+00
   6.036000      0.0000000E+00
   6.048000      0.0000000E+00
   6.060000      0.0000000E+00
   6.072000      0.0000000E+00
   6.084000      0.0000000E+00
   6.096000      0.0000000E+00
   6.108000      0.0000000E+00
   6.120000      0.0000000E+00
   6.132000      0.0000000E+00
   6.144000      0.0000000E+00
   6.156000      0.0000000E+00
   6.168000      0.0000000E+00
   6.180000      0.0000000E+00
   6.192000      0.0000000E+00
   6.204000      0.0000000E+00
   6.216000      0.0000000E+00
   6.228000      0.0000000E+00
   6.240000      0.0000000E+00
   6.252000      0.0000000E+00
   6.264000      0.0000000E+00
   6.276000      0.0000000E+00
   6.288000      0.0000000E+00
   6.300000      0.0000000E+00
   6.312000      0.0000000E+00
   6.324000      0.0000000E+00
   6.336000      0.0000000E+00
   6.348000      0.0000000E+00
   6.360000      0.0000000E+00
   6.372000      0.0000000E+00
   6.384000      0.0000000E+00
   6.396000      0.0000000E+00
   6.408000      0.0000000E+00
   6.420000      0.0000000E+00
   6.432000      0.0000000E+00
   6.444000      0.0000000E+00
   6.456000      0.0000000E+00
   6.468000      0.0000000E+00
   6.480000      0.0000000E+00
   6.492000      0.0000000E+00
   6.504000      0.0000000E+00
   6.516000      0.0000000E+00
   6.528000      0.0000000E+00
   6.540000      0.0000000E+00
   6.552000      0.0000000E+00
   6.564000      0.0000000E+00
   6.576000      0.0000000E+00
   6.588000      0.0000000E+00
   6.600000      0.0000000E+00
   6.612000      0.0000000E+00
   6.624000      0.0000000E+00
   6.636000      0.0000000E+00
   6.648000      0.0000000E+00
   6.660000      0.0000000E+00
   6.672000      0.0000000E+00
   6.684000      0.0000000E+00
   6.696000      0.0000000E+00
   6.708000      0.0000000E+00
   6.720000      0.0000000E+00
   6.732000      0.0000000E+00
   6.744000      0.0000000E+00
   6.756000      0.0000000E+00
   6.768000      0.0000000E+00
   6.780000      0.0000000E+00
   6.792000      0.0000000E+00
   6.804000      0.0000000E+00
   6.816000      0.0000000E+00
   6.828000      0.0000000E+00
   6.840000      0.0000000E+00
   6.852000      0.0000000E+00
   6.864000      0.0000000E+00
   6.876000      0.0000000E+00
   6.888000      0.0000000E+00
   6.900000      0.0000000E+00
   6.912000      0.0000000E+00
   6.924000      0.0000000E+00
   6.936000      0.0000000E+00
   6.948000      0.0000000E+00
   6.960000      0.0000000E+00
   6.972000      0.0000000E+00
   6.984000      0.0000000E+00
   6.996000      0.0000000E+00
   7.008000      0.0000000E+00
   7.020000      0.0000000E+00
   7.032000      0.0000000E+00
   7.044000      0.0000000E+00
   7.056000     -1.3872455E-38
   7.068000     -3.1364151E-38
   7.080000     -4.5608246E-38
   7.092000     -1.8152158E-38
   7.104000      2.3072662E-38
   7.116000      1.0260042E-37
   7.128000      1.8686876E-37
   7.140000      2.4284088E-37
   7.152000      2.4917822E-37
   7.164000      2.1130410E-37
   7.176000      1.1297914E-37
   7.188000      2.3314421E-38
   7.200000     -3.6904050E-38
   7.212000     -4.0482066E-38
   7.224000      1.5513361E-38
   7.236000      1.2336648E-37
   7.248000      2.2763670E-37
   7.260000      2.9949257E-37
   7.272000      3.0816885E-37
   7.284000      2.4835105E-37
   7.296000      1.2262483E-37
   7.308000     -1.9489364E-38
   7.320000     -1.1574359E-37
   7.332000     -1.4624110E-37
   7.344000     -1.1351269E-37
   7.356000     -5.5591265E-38
   7.368000     -1.9923051E-38
   7.380000     -5.1776353E-38
   7.392000     -1.5268304E-37
   7.404000     -2.5095034E-37
   7.416000     -2.8106893E-37
   7.428000     -1.7417647E-37
   7.440000      9.5276323E-38
   7.452000      3.7397849E-37
   7.464000      6.2297340E-37
   7.476000      6.3122379E-37
   7.488000      2.6722988E-37
   7.500000     -5.2587906E-37
   7.512000     -1.6311505E-36
   7.524000     -2.7665402E-36
   7.536000     -3.8458324E-36
   7.548000     -4.5048328E-36
   7.560000     -4.4249549E-36
   7.572000     -3.4883645E-36
   7.584000     -1.5895334E-36
   7.596000      1.1953882E-36
   7.608000      4.4875139E-36
   7.620000      7.8582400E-36
   7.632000      1.0542371E-35
   7.644000      1.2000259E-35
   7.656000      1.2033820E-35
   7.668000      1.0628033E-35
   7.680000      8.0496625E-36
   7.692000      4.7688763E-36
   7.704000      1.4322538E-36
   7.716000     -1.4376916E-36
   7.728000     -3.6405517E-36
   7.740000     -5.2689608E-36
   7.752000     -6.4773434E-36
   7.764000     -7.5473259E-36
   7.776000     -8.9331587E-36
   7.788000     -1.0944739E-35
   7.800000     -1.3945203E-35
   7.812000     -1.8282441E-35
   7.824000     -2.3975922E-35
   7.836000     -3.0791030E-35
   7.848000     -3.8083130E-35
   7.860000     -4.4520267E-35
   7.872000     -4.8819469E-35
   7.884000     -4.9407681E-35
   7.896000     -4.4748745E-35
   7.908000     -3.3577761E-35
   7.920000     -1.5168179E-35
   7.932000      1.0532788E-35
   7.944000      4.2839821E-35
   7.956000      8.0297422E-35
   7.968000      1.2053423E-34
   7.980000      1.6041139E-34
   7.992000      1.9631369E-34
   8.004000      2.2411792E-34
   8.016000      2.3949474E-34
   8.028000      2.3823590E-34
   8.040000      2.1652443E-34
   8.052000      1.7116556E-34
   8.064000      9.9989283E-35
   8.076000      2.2362822E-36
   8.088000     -1.2096746E-34
   8.100000     -2.6615780E-34
   8.112000     -4.2701554E-34
   8.124000     -5.9411780E-34
   8.136000     -7.5475526E-34
   8.148000     -8.9320829E-34
   8.160000     -9.9134471E-34
   8.172000     -1.0296622E-33
   8.184000     -9.8869002E-34
   8.196000     -8.5088746E-34
   8.208000     -6.0274061E-34
   8.220000     -2.3717022E-34
   8.232000      2.4411089E-34
   8.244000      8.2841366E-34
   8.256000      1.4904022E-33
   8.268000      2.1911656E-33
   8.280000      2.8783427E-33
   8.292000      3.4875051E-33
   8.304000      3.9449969E-33
   8.316000      4.1722886E-33
   8.328000      4.0918492E-33
   8.340000      3.6343530E-33
   8.352000      2.7468934E-33
   8.364000      1.4017316E-33
   8.376000     -3.9509334E-34
   8.388000     -2.5960872E-33
   8.400000     -5.1064731E-33
   8.412000     -7.7811790E-33
   8.424000     -1.0425576E-32
   8.436000     -1.2800828E-32
   8.448000     -1.4634462E-32
   8.460000     -1.5636489E-32
   8.472000     -1.5520961E-32
   8.484000     -1.4032307E-32
   8.496000     -1.0975218E-32
   8.508000     -6.2462096E-33
   8.520000      1.3560910E-34
   8.532000      8.0015048E-33
   8.544000      1.7013125E-32
   8.556000      2.6652962E-32
   8.568000      3.6228530E-32
   8.580000      4.4893020E-32
   8.592000      5.1684394E-32
   8.604000      5.5583597E-32
   8.616000      5.5591109E-32
   8.628000      5.0819078E-32
   8.640000      4.0594443E-32
   8.652000      2.4566338E-32
   8.664000      2.8091025E-33
   8.676000     -2.4089044E-32
   8.688000     -5.4962777E-32
   8.700000     -8.8043063E-32
   8.712000     -1.2097746E-31
   8.724000     -1.5090602E-31
   8.736000     -1.7459794E-31
   8.748000     -1.8865059E-31
   8.760000     -1.8974653E-31
   8.772000     -1.7495898E-31
   8.784000     -1.4208918E-31
   8.796000     -9.0013233E-32
   8.808000     -1.9009999E-32
   8.820000      6.8962257E-32
   8.832000      1.7007573E-31
   8.844000      2.7856407E-31
   8.856000      3.8680610E-31
   8.868000      4.8558703E-31
   8.880000      5.6455143E-31
   8.892000      6.1284873E-31
   8.904000      6.1995591E-31
   8.916000      5.7664195E-31
   8.928000      4.7602119E-31
   8.940000      3.1462259E-31
   8.952000      9.3386925E-32
   8.964000     -1.8150909E-31
   8.976000     -4.9810661E-31
   8.988000     -8.3849977E-31
   9.000000     -1.1791429E-30
   9.012000     -1.4916973E-30
   9.024000     -1.7444556E-30
   9.036000     -1.9043332E-30
   9.048000     -1.9393737E-30
   9.060000     -1.8216540E-30
   9.072000     -1.5304235E-30
   9.084000     -1.0552557E-30
   9.096000     -3.9894713E-31
   9.108000      4.2012728E-31
   9.120000      1.3665102E-30
   9.132000      2.3872976E-30
   9.144000      3.4131639E-30
   9.156000      4.3609573E-30
   9.168000      5.1379463E-30
   9.180000      5.6476696E-30
   9.192000      5.7972105E-30
   9.204000      5.5055476E-30
   9.216000      4.7124854E-30
   9.228000      3.3875325E-30
   9.240000      1.5379713E-30
   9.252000     -7.8469862E-31
   9.264000     -3.4807851E-30
   9.276000     -6.4016715E-30
   9.288000     -9.3529861E-30
   9.300000     -1.2102126E-29
   9.312000     -1.4390284E-29
   9.324000     -1.5948812E-29
   9.336000     -1.6519345E-29
   9.348000     -1.5876682E-29
   9.360000     -1.3853052E-29
   9.372000     -1.0361980E-29
   9.384000     -5.4197617E-30
   9.396000      8.3769047E-31
   9.408000      8.1447773E-30
   9.420000      1.6104945E-29
   9.432000      2.4199854E-29
   9.444000      3.1810025E-29
   9.456000      3.8247223E-29
   9.468000      4.2798018E-29
   9.480000      4.4776746E-29
   9.492000      4.3585272E-29
   9.504000      3.8775762E-29
   9.516000      3.0111854E-29
   9.528000      1.7623065E-29
   9.540000      1.6468223E-30
   9.552000     -1.7147319E-29
   9.564000     -3.7756126E-29
   9.576000     -5.8867680E-29
   9.588000     -7.8915184E-29
   9.600000     -9.6159852E-29
   9.612000     -1.0880102E-28
   9.624000     -1.1510876E-28
   9.636000     -1.1357200E-28
   9.648000     -1.0305270E-28
   9.660000     -8.2934528E-29
   9.672000     -5.3253431E-29
   9.684000     -1.4796462E-29
   9.696000      3.0843591E-29
   9.708000      8.1269224E-29
   9.720000      1.3334317E-28
   9.732000      1.8332182E-28
   9.744000      2.2705674E-28
   9.756000      2.6025833E-28
   9.768000      2.7880992E-28
   9.780000      2.7911460E-28
   9.792000      2.5845169E-28
   9.804000      2.1531625E-28
   9.816000      1.4971149E-28
   9.828000      6.3364449E-29
   9.840000     -4.0163301E-29
   9.852000     -1.5549389E-28
   9.864000     -2.7559668E-28
   9.876000     -3.9210429E-28
   9.888000     -4.9577736E-28
   9.900000     -5.7710077E-28
   9.912000     -6.2698226E-28
   9.924000     -6.3751083E-28
   9.936000     -6.0272271E-28
   9.948000     -5.1931430E-28
   9.960000     -3.8723838E-28
   9.972000     -2.1012021E-28
   9.984000      4.5628865E-30
   9.996000      2.4558313E-28
   10.00800      4.9837260E-28
   10.02000      7.4574752E-28
   10.03200      9.6892736E-28
   10.04400      1.1488015E-27
   10.05600      1.2673713E-27
   10.06800      1.3092705E-27
   10.08000      1.2632482E-27
   10.09200      1.1234901E-27
   10.10400      8.9064650E-28
   10.11600      5.7245148E-28
   10.12800      1.8383127E-28
   10.14000     -2.5356235E-28
   10.15200     -7.1242113E-28
   10.16400     -1.1614273E-27
   10.17600     -1.5674026E-27
   10.18800     -1.8978272E-27
   10.20000     -2.1235510E-27
   10.21200     -2.2214780E-27
   10.22400     -2.1769834E-27
   10.23600     -1.9858123E-27
   10.24800     -1.6552336E-27
   10.26000     -1.2042554E-27
   10.27200     -6.6277773E-28
   10.28400     -6.9638004E-29
   10.29600      5.3039249E-28
   10.30800      1.0904942E-27
   10.32000      1.5662917E-27
   10.33200      1.9205780E-27
   10.34400      2.1278229E-27
   10.35600      2.1779646E-27
   10.36800      2.0789900E-27
   10.38000      1.8578477E-27
   10.39200      1.5593380E-27
   10.40400      1.2427748E-27
   10.41600      9.7640373E-28
   10.42800      8.2979761E-28
   10.44000      8.6469132E-28
   10.45200      1.1249698E-27
   10.46400      1.6267419E-27
   10.47600      2.3495935E-27
   10.48800      3.2302190E-27
   10.50000      4.1596050E-27
   10.51200      4.9848213E-27
   10.52400      5.5162193E-27
   10.53600      5.5404471E-27
   10.54800      4.8392079E-27
   10.56000      3.2130803E-27
   10.57200      5.0909642E-28
   10.58400     -3.3498697E-27
   10.59600     -8.3364394E-27
   10.60800     -1.4293794E-26
   10.62000     -2.0917721E-26
   10.63200     -2.7748950E-26
   10.64400     -3.4178782E-26
   10.65600     -3.9470461E-26
   10.66800     -4.2797679E-26
   10.68000     -4.3300513E-26
   10.69200     -4.0157313E-26
   10.70400     -3.2669608E-26
   10.71600     -2.0355032E-26
   10.72800     -3.0417269E-27
   10.74000      1.9043813E-26
   10.75200      4.5204682E-26
   10.76400      7.4226844E-26
   10.77600      1.0436715E-25
   10.78800      1.3338439E-25
   10.80000      1.5861950E-25
   10.81200      1.7712831E-25
   10.82400      1.8586624E-25
   10.83600      1.8191983E-25
   10.84800      1.6277536E-25
   10.86000      1.2660948E-25
   10.87200      7.2582130E-26
   10.88400      1.1082757E-27
   10.89600     -8.5918218E-26
   10.90800     -1.8497588E-25
   10.92000     -2.9086879E-25
   10.93200     -3.9680520E-25
   10.94400     -4.9461855E-25
   10.95600     -5.7514108E-25
   10.96800     -6.2872835E-25
   10.98000     -6.4592079E-25
   10.99200     -6.1821698E-25
   11.00400     -5.3891619E-25
   11.01600     -4.0397831E-25
   11.02800     -2.1283615E-25
   11.04000      3.0912183E-26
   11.05200      3.1900591E-25
   11.06400      6.3829344E-25
   11.07600      9.7083899E-25
   11.08800      1.2944150E-24
   11.10000      1.5834107E-24
   11.11200      1.8101599E-24
   11.12400      1.9466600E-24
   11.13600      1.9666176E-24
   11.14800      1.8477223E-24
   11.16000      1.5740144E-24
   11.17200      1.1381815E-24
   11.18400      5.4360104E-25
   11.19600     -1.9407325E-25
   11.20800     -1.0459728E-24
   11.22000     -1.9699062E-24
   11.23200     -2.9112259E-24
   11.24400     -3.8047684E-24
   11.25600     -4.5778967E-24
   11.26800     -5.1546037E-24
   11.28000     -5.4605358E-24
   11.29200     -5.4287211E-24
   11.30400     -5.0056837E-24
   11.31600     -4.1575565E-24
   11.32800     -2.8757344E-24
   11.34000     -1.1815815E-24
   11.35200      8.7031060E-25
   11.36400      3.1907789E-24
   11.37600      5.6570635E-24
   11.38800      8.1163918E-24
   11.40000      1.0392313E-23
   11.41200      1.2293755E-23
   11.42400      1.3626543E-23
   11.43600      1.4206946E-23
   11.44800      1.3876541E-23
   11.46000      1.2517530E-23
   11.47200      1.0067469E-23