 -0.1200000      0.0000000E+00
 -0.1080000      0.0000000E+00
 -9.6000001E-02  0.0000000E+00
 -8.3999999E-02  0.0000000E+00
 -7.1999997E-02  0.0000000E+00
 -5.9999999E-02  0.0000000E+00
 -4.8000000E-02  0.0000000E+00
 -3.5999998E-02  0.0000000E+00
 -2.4000000E-02  0.0000000E+00
 -1.2000000E-02  0.0000000E+00
  6.9388939E-18  0.0000000E+00
  1.2000000E-02  0.0000000E+00
  2.4000000E-02  0.0000000E+00
  3.5999998E-02  0.0000000E+00
  4.8000000E-02  0.0000000E+00
  5.9999999E-02  0.0000000E+00
  7.1999997E-02  0.0000000E+00
  8.3999999E-02  0.0000000E+00
  9.6000001E-02  0.0000000E+00
  0.1080000      0.0000000E+00
  0.1200000      0.0000000E+00
  0.1320000      0.0000000E+00
  0.1440000      0.0000000E+00
  0.1560000      0.0000000E+00
  0.1680000      0.0000000E+00
  0.1800000      0.0000000E+00
  0.1920000      0.0000000E+00
  0.2040000      0.0000000E+00
  0.2160000      0.0000000E+00
  0.2280000      0.0000000E+00
  0.2400000      0.0000000E+00
  0.2520000      0.0000000E+00
  0.2640000      0.0000000E+00
  0.2760000      0.0000000E+00
  0.2880000      0.0000000E+00
  0.3000000      0.0000000E+00
  0.3120000      0.0000000E+00
  0.3240000      0.0000000E+00
  0.3360000      0.0000000E+00
  0.3480000      0.0000000E+00
  0.3600000      0.0000000E+00
  0.3720000      0.0000000E+00
  0.3840000      0.0000000E+00
  0.3960000      0.0000000E+00
  0.4080000      0.0000000E+00
  0.4200000      0.0000000E+00
  0.4320000      0.0000000E+00
  0.4440000      0.0000000E+00
  0.4560000      0.0000000E+00
  0.4680000      0.0000000E+00
  0.4800000      0.0000000E+00
  0.4920000      0.0000000E+00
  0.5040000      0.0000000E+00
  0.5160000      0.0000000E+00
  0.5280000      0.0000000E+00
  0.5400000      0.0000000E+00
  0.5520000      0.0000000E+00
  0.5640000      0.0000000E+00
  0.5760000      0.0000000E+00
  0.5880000      0.0000000E+00
  0.6000000      0.0000000E+00
  0.6120000      0.0000000E+00
  0.6240000      0.0000000E+00
  0.6360000      0.0000000E+00
  0.6480000      0.0000000E+00
  0.6600000      0.0000000E+00
  0.6720000      0.0000000E+00
  0.6840000      0.0000000E+00
  0.6960000      0.0000000E+00
  0.7080000      0.0000000E+00
  0.7200000      0.0000000E+00
  0.7320000      0.0000000E+00
  0.7440000      0.0000000E+00
  0.7560000      0.0000000E+00
  0.7680000      0.0000000E+00
  0.7800000      0.0000000E+00
  0.7920000      0.0000000E+00
  0.8040000      0.0000000E+00
  0.8160000      0.0000000E+00
  0.8280000      0.0000000E+00
  0.8400000      0.0000000E+00
  0.8520000      0.0000000E+00
  0.8640000      0.0000000E+00
  0.8760000      0.0000000E+00
  0.8880000      0.0000000E+00
  0.9000000      0.0000000E+00
  0.9120000      0.0000000E+00
  0.9240000      0.0000000E+00
  0.9360000      0.0000000E+00
  0.9480000      0.0000000E+00
  0.9600000      0.0000000E+00
  0.9720000      0.0000000E+00
  0.9840000      0.0000000E+00
  0.9960000      0.0000000E+00
   1.008000      0.0000000E+00
   1.020000      0.0000000E+00
   1.032000      0.0000000E+00
   1.044000      0.0000000E+00
   1.056000      0.0000000E+00
   1.068000      0.0000000E+00
   1.080000      0.0000000E+00
   1.092000      0.0000000E+00
   1.104000      0.0000000E+00
   1.116000      0.0000000E+00
   1.128000      0.0000000E+00
   1.140000      0.0000000E+00
   1.152000      0.0000000E+00
   1.164000      0.0000000E+00
   1.176000      0.0000000E+00
   1.188000      0.0000000E+00
   1.200000      0.0000000E+00
   1.212000      0.0000000E+00
   1.224000      0.0000000E+00
   1.236000      0.0000000E+00
   1.248000      0.0000000E+00
   1.260000      0.0000000E+00
   1.272000      0.0000000E+00
   1.284000      0.0000000E+00
   1.296000      0.0000000E+00
   1.308000      0.0000000E+00
   1.320000      0.0000000E+00
   1.332000      0.0000000E+00
   1.344000      0.0000000E+00
   1.356000      0.0000000E+00
   1.368000      0.0000000E+00
   1.380000      0.0000000E+00
   1.392000      0.0000000E+00
   1.404000      0.0000000E+00
   1.416000      0.0000000E+00
   1.428000      0.0000000E+00
   1.440000      0.0000000E+00
   1.452000      0.0000000E+00
   1.464000      0.0000000E+00
   1.476000      0.0000000E+00
   1.488000      0.0000000E+00
   1.500000      0.0000000E+00
   1.512000      0.0000000E+00
   1.524000      0.0000000E+00
   1.536000      0.0000000E+00
   1.548000      0.0000000E+00
   1.560000      0.0000000E+00
   1.572000      0.0000000E+00
   1.584000      0.0000000E+00
   1.596000      0.0000000E+00
   1.608000      0.0000000E+00
   1.620000      0.0000000E+00
   1.632000      0.0000000E+00
   1.644000      0.0000000E+00
   1.656000      0.0000000E+00
   1.668000      0.0000000E+00
   1.680000      0.0000000E+00
   1.692000      0.0000000E+00
   1.704000      0.0000000E+00
   1.716000      0.0000000E+00
   1.728000      0.0000000E+00
   1.740000      0.0000000E+00
   1.752000      0.0000000E+00
   1.764000      0.0000000E+00
   1.776000      0.0000000E+00
   1.788000      0.0000000E+00
   1.800000      0.0000000E+00
   1.812000      0.0000000E+00
   1.824000      0.0000000E+00
   1.836000      0.0000000E+00
   1.848000      0.0000000E+00
   1.860000      0.0000000E+00
   1.872000      0.0000000E+00
   1.884000      0.0000000E+00
   1.896000      0.0000000E+00
   1.908000      0.0000000E+00
   1.920000      0.0000000E+00
   1.932000      0.0000000E+00
   1.944000      0.0000000E+00
   1.956000      0.0000000E+00
   1.968000      0.0000000E+00
   1.980000      0.0000000E+00
   1.992000      0.0000000E+00
   2.004000      0.0000000E+00
   2.016000      0.0000000E+00
   2.028000      0.0000000E+00
   2.040000      0.0000000E+00
   2.052000      0.0000000E+00
   2.064000      0.0000000E+00
   2.076000      0.0000000E+00
   2.088000      0.0000000E+00
   2.100000      0.0000000E+00
   2.112000      0.0000000E+00
   2.124000      0.0000000E+00
   2.136000      0.0000000E+00
   2.148000      0.0000000E+00
   2.160000      0.0000000E+00
   2.172000      0.0000000E+00
   2.184000      0.0000000E+00
   2.196000      0.0000000E+00
   2.208000      0.0000000E+00
   2.220000      0.0000000E+00
   2.232000      0.0000000E+00
   2.244000      0.0000000E+00
   2.256000      0.0000000E+00
   2.268000      0.0000000E+00
   2.280000      0.0000000E+00
   2.292000      0.0000000E+00
   2.304000      0.0000000E+00
   2.316000      0.0000000E+00
   2.328000      0.0000000E+00
   2.340000      0.0000000E+00
   2.352000      0.0000000E+00
   2.364000      0.0000000E+00
   2.376000      0.0000000E+00
   2.388000      0.0000000E+00
   2.400000      0.0000000E+00
   2.412000      0.0000000E+00
   2.424000      0.0000000E+00
   2.436000      0.0000000E+00
   2.448000      0.0000000E+00
   2.460000      0.0000000E+00
   2.472000      0.0000000E+00
   2.484000      0.0000000E+00
   2.496000      0.0000000E+00
   2.508000      0.0000000E+00
   2.520000      0.0000000E+00
   2.532000      0.0000000E+00
   2.544000      0.0000000E+00
   2.556000      0.0000000E+00
   2.568000      0.0000000E+00
   2.580000      0.0000000E+00
   2.592000      0.0000000E+00
   2.604000      0.0000000E+00
   2.616000      0.0000000E+00
   2.628000      0.0000000E+00
   2.640000      0.0000000E+00
   2.652000      0.0000000E+00
   2.664000      0.0000000E+00
   2.676000      0.0000000E+00
   2.688000      0.0000000E+00
   2.700000      0.0000000E+00
   2.712000      0.0000000E+00
   2.724000      0.0000000E+00
   2.736000      0.0000000E+00
   2.748000      0.0000000E+00
   2.760000      0.0000000E+00
   2.772000      0.0000000E+00
   2.784000      0.0000000E+00
   2.796000      0.0000000E+00
   2.808000      0.0000000E+00
   2.820000      0.0000000E+00
   2.832000      0.0000000E+00
   2.844000      0.0000000E+00
   2.856000      0.0000000E+00
   2.868000      0.0000000E+00
   2.880000      0.0000000E+00
   2.892000      0.0000000E+00
   2.904000      0.0000000E+00
   2.916000      0.0000000E+00
   2.928000      0.0000000E+00
   2.940000      0.0000000E+00
   2.952000      0.0000000E+00
   2.964000      0.0000000E+00
   2.976000      0.0000000E+00
   2.988000      0.0000000E+00
   3.000000      0.0000000E+00
   3.012000      0.0000000E+00
   3.024000      0.0000000E+00
   3.036000      0.0000000E+00
   3.048000      0.0000000E+00
   3.060000      0.0000000E+00
   3.072000      0.0000000E+00
   3.084000      0.0000000E+00
   3.096000      0.0000000E+00
   3.108000      0.0000000E+00
   3.120000      0.0000000E+00
   3.132000      0.0000000E+00
   3.144000      0.0000000E+00
   3.156000      0.0000000E+00
   3.168000      0.0000000E+00
   3.180000      0.0000000E+00
   3.192000      0.0000000E+00
   3.204000      0.0000000E+00
   3.216000      0.0000000E+00
   3.228000      0.0000000E+00
   3.240000      0.0000000E+00
   3.252000      0.0000000E+00
   3.264000      0.0000000E+00
   3.276000      0.0000000E+00
   3.288000      0.0000000E+00
   3.300000      0.0000000E+00
   3.312000      0.0000000E+00
   3.324000      0.0000000E+00
   3.336000      0.0000000E+00
   3.348000      0.0000000E+00
   3.360000      0.0000000E+00
   3.372000      0.0000000E+00
   3.384000      0.0000000E+00
   3.396000      0.0000000E+00
   3.408000      0.0000000E+00
   3.420000      0.0000000E+00
   3.432000      0.0000000E+00
   3.444000      0.0000000E+00
   3.456000      0.0000000E+00
   3.468000      0.0000000E+00
   3.480000      0.0000000E+00
   3.492000      0.0000000E+00
   3.504000      0.0000000E+00
   3.516000      0.0000000E+00
   3.528000      0.0000000E+00
   3.540000      0.0000000E+00
   3.552000      0.0000000E+00
   3.564000      0.0000000E+00
   3.576000      0.0000000E+00
   3.588000      0.0000000E+00
   3.600000      0.0000000E+00
   3.612000      0.0000000E+00
   3.624000      0.0000000E+00
   3.636000      0.0000000E+00
   3.648000      0.0000000E+00
   3.660000      0.0000000E+00
   3.672000      0.0000000E+00
   3.684000      0.0000000E+00
   3.696000      0.0000000E+00
   3.708000      0.0000000E+00
   3.720000      0.0000000E+00
   3.732000      0.0000000E+00
   3.744000      0.0000000E+00
   3.756000      0.0000000E+00
   3.768000      0.0000000E+00
   3.780000      0.0000000E+00
   3.792000      0.0000000E+00
   3.804000      0.0000000E+00
   3.816000      0.0000000E+00
   3.828000      0.0000000E+00
   3.840000      0.0000000E+00
   3.852000      0.0000000E+00
   3.864000      0.0000000E+00
   3.876000      0.0000000E+00
   3.888000      0.0000000E+00
   3.900000      0.0000000E+00
   3.912000      0.0000000E+00
   3.924000      0.0000000E+00
   3.936000      0.0000000E+00
   3.948000      0.0000000E+00
   3.960000      0.0000000E+00
   3.972000      0.0000000E+00
   3.984000      0.0000000E+00
   3.996000      0.0000000E+00
   4.008000      0.0000000E+00
   4.020000      0.0000000E+00
   4.032000      0.0000000E+00
   4.044000      0.0000000E+00
   4.056000      0.0000000E+00
   4.068000      0.0000000E+00
   4.080000      0.0000000E+00
   4.092000      0.0000000E+00
   4.104000      0.0000000E+00
   4.116000      0.0000000E+00
   4.128000      0.0000000E+00
   4.140000      0.0000000E+00
   4.152000      0.0000000E+00
   4.164000      0.0000000E+00
   4.176000      0.0000000E+00
   4.188000      0.0000000E+00
   4.200000      0.0000000E+00
   4.212000      0.0000000E+00
   4.224000      0.0000000E+00
   4.236000      0.0000000E+00
   4.248000      0.0000000E+00
   4.260000      0.0000000E+00
   4.272000      0.0000000E+00
   4.284000      0.0000000E+00
   4.296000      0.0000000E+00
   4.308000      0.0000000E+00
   4.320000      0.0000000E+00
   4.332000      0.0000000E+00
   4.344000      0.0000000E+00
   4.356000      0.0000000E+00
   4.368000      0.0000000E+00
   4.380000      0.0000000E+00
   4.392000      0.0000000E+00
   4.404000      0.0000000E+00
   4.416000      0.0000000E+00
   4.428000      0.0000000E+00
   4.440000      0.0000000E+00
   4.452000      0.0000000E+00
   4.464000      0.0000000E+00
   4.476000      0.0000000E+00
   4.488000      0.0000000E+00
   4.500000      0.0000000E+00
   4.512000      0.0000000E+00
   4.524000      0.0000000E+00
   4.536000      0.0000000E+00
   4.548000      1.2909880E-38
   4.560000      1.3158935E-38
   4.572000      1.2090067E-38
   4.584000      0.0000000E+00
   4.596000      3.3188504E-38
   4.608000      6.2636629E-38
   4.620000      9.0606670E-38
   4.632000      1.1611631E-37
   4.644000      1.1840111E-37
   4.656000      9.2008764E-38
   4.668000      4.8717593E-38
   4.680000      0.0000000E+00
   4.692000     -3.4956536E-38
   4.704000     -3.6010156E-38
   4.716000      0.0000000E+00
   4.728000      5.9254853E-38
   4.740000      1.1259617E-37
   4.752000      1.3579626E-37
   4.764000      1.5357602E-37
   4.776000      1.3125751E-37
   4.788000      8.9770397E-38
   4.800000      0.0000000E+00
   4.812000     -1.1566369E-37
   4.824000     -2.1514772E-37
   4.836000     -2.6616487E-37
   4.848000     -2.8210638E-37
   4.860000     -2.5676241E-37
   4.872000     -1.8527717E-37
   4.884000     -6.3428615E-38
   4.896000      1.0682967E-37
   4.908000      3.3768215E-37
   4.920000      5.9705920E-37
   4.932000      8.2463406E-37
   4.944000      1.0056809E-36
   4.956000      1.1187773E-36
   4.968000      1.1204289E-36
   4.980000      9.6222802E-37
   4.992000      6.6193438E-37
   5.004000      2.5246549E-37
   5.016000     -2.3368103E-37
   5.028000     -8.1505545E-37
   5.040000     -1.2723334E-36
   5.052000     -1.5830574E-36
   5.064000     -1.7406154E-36
   5.076000     -1.7207583E-36
   5.088000     -1.5412251E-36
   5.100000     -1.2459576E-36
   5.112000     -9.8324472E-37
   5.124000     -7.9764563E-37
   5.136000     -7.2156544E-37
   5.148000     -6.7233197E-37
   5.160000     -7.7019758E-37
   5.172000     -9.0163175E-37
   5.184000     -8.4682058E-37
   5.196000     -4.7767287E-37
   5.208000      3.6357747E-37
   5.220000      1.7404918E-36
   5.232000      3.7408727E-36
   5.244000      6.3008815E-36
   5.256000      9.2172525E-36
   5.268000      1.2196012E-35
   5.280000      1.4707547E-35
   5.292000      1.6096736E-35
   5.304000      1.5683205E-35
   5.316000      1.2869867E-35
   5.328000      7.1191465E-36
   5.340000     -1.7062985E-36
   5.352000     -1.3536610E-35
   5.364000     -2.7859888E-35
   5.376000     -4.3714216E-35
   5.388000     -5.9667031E-35
   5.400000     -7.4018991E-35
   5.412000     -8.4740831E-35
   5.424000     -8.9687722E-35
   5.436000     -8.6711454E-35
   5.448000     -7.3939582E-35
   5.460000     -4.9835014E-35
   5.472000     -1.3341417E-35
   5.484000      3.5854753E-35
   5.496000      9.7156100E-35
   5.508000      1.6874371E-34
   5.520000      2.4732298E-34
   5.532000      3.2781606E-34
   5.544000      4.0312412E-34
   5.556000      4.6404995E-34
   5.568000      4.9943858E-34
   5.580000      4.9666845E-34
   5.592000      4.4250805E-34
   5.604000      3.2439174E-34
   5.616000      1.3210248E-34
   5.628000     -1.4022720E-34
   5.640000     -4.9187519E-34
   5.652000     -9.1327416E-34
   5.664000     -1.3839642E-33
   5.676000     -1.8710568E-33
   5.688000     -2.3285500E-33
   5.700000     -2.6978613E-33
   5.712000     -2.9099043E-33
   5.724000     -2.8890705E-33
   5.736000     -2.5591484E-33
   5.748000     -1.8513601E-33
   5.760000     -7.1420057E-34
   5.772000      8.7530514E-34
   5.784000      2.8997229E-33
   5.796000      5.2897463E-33
   5.808000      7.9145197E-33
   5.820000      1.0575367E-32
   5.832000      1.3004703E-32
   5.844000      1.4871967E-32
   5.856000      1.5798239E-32
   5.868000      1.5380860E-32
   5.880000      1.3228627E-32
   5.892000      9.0072343E-33
   5.904000      2.4933216E-33
   5.916000     -6.3659962E-33
   5.928000     -1.7392848E-32
   5.940000     -3.0123900E-32
   5.952000     -4.3768944E-32
   5.964000     -5.7191462E-32
   5.976000     -6.8920192E-32
   5.988000     -7.7200104E-32
   6.000000     -8.0089692E-32
   6.012000     -7.5608461E-32
   6.024000     -6.1934388E-32
   6.036000     -3.7645592E-32
   6.048000     -1.9937238E-33
   6.060000      4.4810356E-32
   6.072000      1.0132572E-31
   6.084000      1.6465878E-31
   6.096000      2.3032721E-31
   6.108000      2.9225098E-31
   6.120000      3.4290978E-31
   6.132000      3.7369908E-31
   6.144000      3.7550723E-31
   6.156000      3.3951660E-31
   6.168000      2.5821137E-31
   6.180000      1.2654518E-31
   6.192000     -5.6806828E-32
   6.204000     -2.8822014E-31
   6.216000     -5.5805292E-31
   6.228000     -8.4989718E-31
   6.240000     -1.1403206E-30
   6.252000     -1.3992670E-30
   6.264000     -1.5912629E-30
   6.276000     -1.6775356E-30
   6.288000     -1.6190774E-30
   6.300000     -1.3806078E-30
   6.312000     -9.3526844E-31
   6.324000     -2.6977304E-31
   6.336000      6.1040525E-31
   6.348000      1.6763326E-30
   6.360000      2.8720301E-30
   6.372000      4.1126891E-30
   6.384000      5.2853769E-30
   6.396000      6.2528430E-30
   6.408000      6.8608915E-30
   6.420000      6.9495301E-30
   6.432000      6.3677729E-30
   6.444000      4.9915508E-30
   6.456000      2.7437112E-30
   6.468000     -3.8538815E-31
   6.480000     -4.3186854E-30
   6.492000     -8.8769670E-30
   6.504000     -1.3769791E-29
   6.516000     -1.8595413E-29
   6.528000     -2.2852143E-29
   6.540000     -2.5962977E-29
   6.552000     -2.7314504E-29
   6.564000     -2.6309780E-29
   6.576000     -2.2433399E-29
   6.588000     -1.5325229E-29
   6.600000     -4.8574394E-30
   6.612000      8.7922907E-30
   6.624000      2.5079886E-29
   6.636000      4.3055819E-29
   6.648000      6.1357522E-29
   6.660000      7.8242120E-29
   6.672000      9.1666453E-29
   6.684000      9.9418165E-29
   6.696000      9.9297265E-29
   6.708000      8.9342331E-29
   6.720000      6.8089111E-29
   6.732000      3.4843187E-29
   6.744000     -1.0057991E-29
   6.756000     -6.5023199E-29
   6.768000     -1.2705847E-28
   6.780000     -1.9172438E-28
   6.792000     -2.5323020E-28
   6.804000     -3.0468893E-28
   6.816000     -3.3854618E-28
   6.828000     -3.4718159E-28
   6.840000     -3.2366331E-28
   6.852000     -2.6261441E-28
   6.864000     -1.6113030E-28
   6.876000     -1.9664769E-29
   6.888000      1.5721326E-28
   6.900000      3.6030105E-28
   6.912000      5.7559060E-28
   6.924000      7.8454499E-28
   6.936000      9.6489957E-28
   6.948000      1.0920299E-27
   6.960000      1.1408807E-27
   6.972000      1.0883899E-27
   6.984000      9.1627619E-28
   6.996000      6.1399224E-28
   7.008000      1.8157961E-28
   7.020000     -3.6788656E-28
   7.032000     -1.0066076E-27
   7.044000     -1.6914699E-27
   7.056000     -2.3648652E-27
   7.068000     -2.9571630E-27
   7.080000     -3.3909567E-27
   7.092000     -3.5870653E-27
   7.104000     -3.4720734E-27
   7.116000     -2.9870049E-27
   7.128000     -2.0965003E-27
   7.140000     -7.9769529E-28
   7.152000      8.7216855E-28
   7.164000      2.8304480E-27
   7.176000      4.9471678E-27
   7.188000      7.0474006E-27
   7.200000      8.9186757E-27
   7.212000      1.0323792E-26
   7.224000      1.1018938E-26
   7.236000      1.0776498E-26
   7.248000      9.4112793E-27
   7.260000      6.8083211E-27
   7.272000      2.9498462E-27
   7.284000     -2.0615017E-27
   7.296000     -7.9862591E-27
   7.308000     -1.4441690E-26
   7.320000     -2.0908097E-26
   7.332000     -2.6750008E-26
   7.344000     -3.1253412E-26
   7.356000     -3.3678765E-26
   7.368000     -3.3328042E-26
   7.380000     -2.9622189E-26
   7.392000     -2.2183644E-26
   7.404000     -1.0916975E-26
   7.416000      3.9206753E-27
   7.428000      2.1668347E-26
   7.440000      4.1238271E-26
   7.452000      6.1129368E-26
   7.464000      7.9483622E-26
   7.476000      9.4188864E-26
   7.488000      1.0302792E-25
   7.500000      1.0386928E-25
   7.512000      9.4889890E-26
   7.524000      7.4815180E-26
   7.536000      4.3157110E-26
   7.548000      4.2704121E-28
   7.560000     -5.1701913E-26
   7.572000     -1.1030903E-25
   7.584000     -1.7124037E-25
   7.596000     -2.2924246E-25
   7.608000     -2.7822735E-25
   7.620000     -3.1167027E-25
   7.632000     -3.2313007E-25
   7.644000     -3.0686783E-25
   7.656000     -2.5852619E-25
   7.668000     -1.7581783E-25
   7.680000     -5.9161240E-26
   7.692000      8.7805858E-26
   7.704000      2.5790723E-25
   7.716000      4.4037065E-25
   7.728000      6.2108932E-25
   7.740000      7.8324017E-25
   7.752000      9.0827295E-25
   7.764000      9.7725095E-25
   7.776000      9.7249007E-25
   7.788000      8.7940360E-25
   7.800000      6.8842649E-25
   7.812000      3.9685906E-25
   7.824000      1.0448869E-26
   7.836000     -4.5548153E-25
   7.848000     -9.7554701E-25
   7.860000     -1.5146171E-24
   7.872000     -2.0290583E-24
   7.884000     -2.4689660E-24
   7.896000     -2.7813648E-24
   7.908000     -2.9142782E-24
   7.920000     -2.8214624E-24
   7.932000     -2.4675094E-24
   7.944000     -1.8329386E-24
   7.956000     -9.1882515E-25
   7.968000      2.4951880E-25
   7.980000      1.6203027E-24
   7.992000      3.1149035E-24
   8.004000      4.6297604E-24
   8.016000      6.0407466E-24
   8.028000      7.2100735E-24
   8.040000      7.9955628E-24
   8.052000      8.2619012E-24
   8.064000      7.8932491E-24
   8.076000      6.8063574E-24
   8.088000      4.9631559E-24
   8.100000      2.3816606E-24
   8.112000     -8.5600066E-25
   8.124000     -4.5995983E-24
   8.136000     -8.6318288E-24
   8.148000     -1.2675091E-23
   8.160000     -1.6404350E-23
   8.172000     -1.9465988E-23
   8.184000     -2.1502018E-23
   8.196000     -2.2178465E-23
   8.208000     -2.1216236E-23
   8.220000     -1.8422308E-23
   8.232000     -1.3718693E-23
   8.244000     -7.1665244E-24
   8.256000      1.0174796E-24
   8.268000      1.0454583E-23
   8.280000      2.0609630E-23
   8.292000      3.0809922E-23
   8.304000      4.0277745E-23
   8.316000      4.8175814E-23
   8.328000      5.3663834E-23
   8.340000      5.5963112E-23
   8.352000      5.4425205E-23
   8.364000      4.8599729E-23
   8.376000      3.8295849E-23
   8.388000      2.3631794E-23
   8.400000      5.0671116E-24
   8.412000     -1.6587058E-23
   8.424000     -4.0183069E-23
   8.436000     -6.4279081E-23
   8.448000     -8.7208542E-23
   8.460000     -1.0717448E-22
   8.472000     -1.2236443E-22
   8.484000     -1.3107931E-22
   8.496000     -1.3186819E-22
   8.508000     -1.2365934E-22
   8.520000     -1.0587783E-22
   8.532000     -7.8539232E-23
   8.544000     -4.2310927E-23
   8.556000      1.4665248E-24
   8.568000      5.0802611E-23
   8.580000      1.0312653E-22
   8.592000      1.5540176E-22
   8.604000      2.0428061E-22
   8.616000      2.4629045E-22
   8.628000      2.7804088E-22
   8.640000      2.9643878E-22
   8.652000      2.9889755E-22
   8.664000      2.8352645E-22
   8.676000      2.4928762E-22
   8.688000      1.9611096E-22
   8.700000      1.2495906E-22
   8.712000      3.7839733E-23
   8.724000     -6.2233805E-23
   8.736000     -1.7133030E-22
   8.748000     -2.8472845E-22
   8.760000     -3.9707555E-22
   8.772000     -5.0256746E-22
   8.784000     -5.9513954E-22
   8.796000     -6.6866218E-22
   8.808000     -7.1713722E-22
   8.820000     -7.3489494E-22
   8.832000     -7.1679749E-22
   8.844000     -6.5845642E-22
   8.856000     -5.5647566E-22
   8.868000     -4.0873059E-22
   8.880000     -2.1469083E-22
   8.892000      2.4210189E-23
   8.904000      3.0416773E-22
   8.916000      6.1857832E-22
   8.928000      9.5762776E-22
   8.940000      1.3079428E-21
   8.952000      1.6523717E-21
   8.964000      1.9699680E-21
   8.976000      2.2362579E-21
   8.988000      2.4238741E-21
   9.000000      2.5036202E-21
   9.012000      2.4460163E-21
   9.024000      2.2233355E-21
   9.036000      1.8121045E-21
   9.048000      1.1959768E-21
   9.060000      3.6884016E-22
   9.072000     -6.6205377E-22
   9.084000     -1.8731996E-21
   9.096000     -3.2225048E-21
   9.108000     -4.6478544E-21
   9.120000     -6.0669283E-21
   9.132000     -7.3785957E-21
   9.144000     -8.4661596E-21
   9.156000     -9.2026218E-21
   9.168000     -9.4580065E-21
   9.180000     -9.1086269E-21
   9.192000     -8.0479690E-21
   9.204000     -6.1986823E-21
   9.216000     -3.5249397E-21
   9.228000     -4.4249679E-23
   9.240000      4.1623284E-21
   9.252000      8.9427449E-21
   9.264000      1.4070459E-20
   9.276000      1.9245981E-20
   9.288000      2.4104365E-20
   9.300000      2.8229296E-20
   9.312000      3.1173969E-20
   9.324000      3.2488507E-20
   9.336000      3.1753076E-20
   9.348000      2.8615241E-20
   9.360000      2.2829526E-20
   9.372000      1.4296571E-20
   9.384000      3.0987712E-21
   9.396000     -1.0470931E-20
   9.408000     -2.5890606E-20
   9.420000     -4.2404558E-20
   9.432000     -5.9035085E-20
   9.444000     -7.4612926E-20
   9.456000     -8.7827569E-20
   9.468000     -9.7297048E-20
   9.480000     -1.0165582E-19
   9.492000     -9.9657137E-20
   9.504000     -9.0285071E-20
   9.516000     -7.2869610E-20
   9.528000     -4.7196754E-20
   9.540000     -1.3604777E-20
   9.552000      2.6942856E-20
   9.564000      7.2817297E-20
   9.576000      1.2172526E-19
   9.588000      1.7075828E-19
   9.600000      2.1649452E-19
   9.612000      2.5515492E-19
   9.624000      2.8281145E-19
   9.636000      2.9564086E-19
   9.648000      2.9021373E-19
   9.660000      2.6380351E-19
   9.672000      2.1469677E-19
   9.684000      1.4248293E-19
   9.696000      4.8298927E-20
   9.708000     -6.4995419E-20
   9.720000     -1.9273533E-19
   9.732000     -3.2848301E-19
   9.744000     -4.6418972E-19
   9.756000     -5.9049705E-19
   9.768000     -6.9717879E-19
   9.780000     -7.7371393E-19
   9.792000     -8.0997138E-19
   9.804000     -7.9697663E-19
   9.816000     -7.2771799E-19
   9.828000     -5.9794322E-19
   9.840000     -4.0688893E-19
   9.852000     -1.5788078E-19
   9.864000      1.4125622E-19
   9.876000      4.7803646E-19
   9.888000      8.3545030E-19
   9.900000      1.1924343E-18
   9.912000      1.5246950E-18
   9.924000      1.8058800E-18
   9.936000      2.0090714E-18
   9.948000      2.1085438E-18
   9.960000      2.0817063E-18
   9.972000      1.9111212E-18
   9.984000      1.5864741E-18
   9.996000      1.1063482E-18
   10.00800      4.7965329E-19
   10.02000     -2.7343846E-19
   10.03200     -1.1211907E-18
   10.04400     -2.0207462E-18
   10.05600     -2.9193965E-18
   10.06800     -3.7567098E-18
   10.08000     -4.4674974E-18
   10.09200     -4.9855367E-18
   10.10400     -5.2479084E-18
   10.11600     -5.1997322E-18
   10.12800     -4.7990447E-18
   10.14000     -4.0215015E-18
   10.15200     -2.8645560E-18
   10.16400     -1.3507586E-18
   10.17600      4.7017551E-19
   10.18800      2.5208437E-18
   10.20000      4.6974346E-18
   10.21200      6.8729730E-18
   10.22400      8.9025859E-18
   10.23600      1.0630719E-17
   10.24800      1.1900080E-17
   10.26000      1.2561949E-17
   10.27200      1.2487345E-17
   10.28400      1.1578413E-17
   10.29600      9.7792874E-18
   10.30800      7.0856341E-18
   10.32000      3.5520422E-18
   10.33200     -7.0353076E-19
   10.34400     -5.4989503E-18
   10.35600     -1.0591288E-17
   10.36800     -1.5684727E-17
   10.38000     -2.0443094E-17
   10.39200     -2.4506746E-17
   10.40400     -2.7513336E-17
   10.41600     -2.9121512E-17
   10.42800     -2.9036402E-17
   10.44000     -2.7035412E-17
   10.45200     -2.2992632E-17
   10.46400     -1.6900059E-17
   10.47600     -8.8838098E-18
   10.48800      7.8642842E-19
   10.50000      1.1696218E-17
   10.51200      2.3294617E-17
   10.52400      3.4912531E-17
   10.53600      4.5791263E-17
   10.54800      5.5120725E-17
   10.56000      6.2085980E-17
   10.57200      6.5920141E-17
   10.58400      6.5960997E-17
   10.59600      6.1708051E-17
   10.60800      5.2876283E-17
   10.62000      3.9442751E-17
   10.63200      2.1681956E-17
   10.64400      1.8634303E-19
   10.65600     -2.4131409E-17
   10.66800     -5.0056659E-17
   10.68000     -7.6113156E-17
   10.69200     -1.0062546E-16
   10.70400     -1.2180233E-16
   10.71600     -1.3783823E-16
   10.72800     -1.4702853E-16
   10.74000     -1.4789293E-16
   10.75200     -1.3929976E-16
   10.76400     -1.2058364E-16
   10.77600     -9.1647794E-17
   10.78800     -5.3042593E-17
   10.80000     -6.0123325E-18
   10.81200      4.7496717E-17
   10.82400      1.0487238E-16
   10.83600      1.6291983E-16
   10.84800      2.1799269E-16
   10.86000      2.6616938E-16
   10.87200      3.0346925E-16
   10.88400      3.2609966E-16
   10.89600      3.3072184E-16
   10.90800      3.1472142E-16
   10.92000      2.7646674E-16
   10.93200      2.1553705E-16
   10.94400      1.3290278E-16
   10.95600      3.1040144E-17
   10.96800     -8.6035095E-17
   10.98000     -2.1282670E-16
   10.99200     -3.4251800E-16
   11.00400     -4.6723502E-16
   11.01600     -5.7840958E-16
   11.02800     -6.6723104E-16
   11.04000     -7.2517063E-16
   11.05200     -7.4455398E-16
   11.06400     -7.1915210E-16
   11.07600     -6.4475640E-16
   11.08800     -5.1970098E-16
   11.10000     -3.4529068E-16
   11.11200     -1.2609986E-16
   11.12400      1.2989567E-16
   11.13600      4.1138109E-16
   11.14800      7.0398025E-16
   11.16000      9.9075824E-16
   11.17200      1.2529471E-15
   11.18400      1.4708763E-15
   11.19600      1.6250786E-15
   11.20800      1.6975233E-15
   11.22000      1.6729202E-15
   11.23200      1.5400194E-15
   11.24400      1.2928296E-15
   11.25600      9.3166943E-16
   11.26800      4.6396595E-16
   11.28000     -9.5280923E-17
   11.29200     -7.2343903E-16
   11.30400     -1.3906437E-15
   11.31600     -2.0606925E-15
   11.32800     -2.6924437E-15
   11.34000     -3.2416955E-15
   11.35200     -3.6634971E-15
   11.36400     -3.9148042E-15
   11.37600     -3.9573612E-15
   11.38800     -3.7606696E-15
   11.40000     -3.3048638E-15
   11.41200     -2.5833190E-15
   11.42400     -1.6047926E-15
   11.43600     -3.9491032E-16
   11.44800      1.0031785E-15
   11.46000      2.5291201E-15
   11.47200      4.1067617E-15