 -0.1200000      0.0000000E+00
 -0.1080000      0.0000000E+00
 -9.6000001E-02  0.0000000E+00
 -8.3999999E-02  0.0000000E+00
 -7.1999997E-02  0.0000000E+00
 -5.9999999E-02  0.0000000E+00
 -4.8000000E-02  0.0000000E+00
 -3.5999998E-02  0.0000000E+00
 -2.4000000E-02  0.0000000E+00
 -1.2000000E-02  0.0000000E+00
  6.9388939E-18  0.0000000E+00
  1.2000000E-02  0.0000000E+00
  2.4000000E-02  0.0000000E+00
  3.5999998E-02  0.0000000E+00
  4.8000000E-02  0.0000000E+00
  5.9999999E-02  0.0000000E+00
  7.1999997E-02  0.0000000E+00
  8.3999999E-02  0.0000000E+00
  9.6000001E-02  0.0000000E+00
  0.1080000      0.0000000E+00
  0.1200000      0.0000000E+00
  0.1320000      0.0000000E+00
  0.1440000      0.0000000E+00
  0.1560000      0.0000000E+00
  0.1680000      0.0000000E+00
  0.1800000      0.0000000E+00
  0.1920000      0.0000000E+00
  0.2040000      0.0000000E+00
  0.2160000      0.0000000E+00
  0.2280000      0.0000000E+00
  0.2400000      0.0000000E+00
  0.2520000      0.0000000E+00
  0.2640000      0.0000000E+00
  0.2760000      0.0000000E+00
  0.2880000      0.0000000E+00
  0.3000000      0.0000000E+00
  0.3120000      0.0000000E+00
  0.3240000      0.0000000E+00
  0.3360000      0.0000000E+00
  0.3480000      0.0000000E+00
  0.3600000      0.0000000E+00
  0.3720000      0.0000000E+00
  0.3840000      0.0000000E+00
  0.3960000      0.0000000E+00
  0.4080000      0.0000000E+00
  0.4200000      0.0000000E+00
  0.4320000      0.0000000E+00
  0.4440000      0.0000000E+00
  0.4560000      0.0000000E+00
  0.4680000      0.0000000E+00
  0.4800000      0.0000000E+00
  0.4920000      0.0000000E+00
  0.5040000      0.0000000E+00
  0.5160000      0.0000000E+00
  0.5280000      0.0000000E+00
  0.5400000      0.0000000E+00
  0.5520000      0.0000000E+00
  0.5640000      0.0000000E+00
  0.5760000      0.0000000E+00
  0.5880000      0.0000000E+00
  0.6000000      0.0000000E+00
  0.6120000      0.0000000E+00
  0.6240000      0.0000000E+00
  0.6360000      0.0000000E+00
  0.6480000      0.0000000E+00
  0.6600000      0.0000000E+00
  0.6720000      0.0000000E+00
  0.6840000      0.0000000E+00
  0.6960000      0.0000000E+00
  0.7080000      0.0000000E+00
  0.7200000      0.0000000E+00
  0.7320000      0.0000000E+00
  0.7440000      0.0000000E+00
  0.7560000      0.0000000E+00
  0.7680000      0.0000000E+00
  0.7800000      0.0000000E+00
  0.7920000      0.0000000E+00
  0.8040000      0.0000000E+00
  0.8160000      0.0000000E+00
  0.8280000      0.0000000E+00
  0.8400000      0.0000000E+00
  0.8520000      0.0000000E+00
  0.8640000      0.0000000E+00
  0.8760000      0.0000000E+00
  0.8880000      0.0000000E+00
  0.9000000      0.0000000E+00
  0.9120000      0.0000000E+00
  0.9240000      0.0000000E+00
  0.9360000      0.0000000E+00
  0.9480000      0.0000000E+00
  0.9600000      0.0000000E+00
  0.9720000      0.0000000E+00
  0.9840000      0.0000000E+00
  0.9960000      0.0000000E+00
   1.008000      0.0000000E+00
   1.020000      0.0000000E+00
   1.032000      0.0000000E+00
   1.044000      0.0000000E+00
   1.056000      0.0000000E+00
   1.068000      0.0000000E+00
   1.080000      0.0000000E+00
   1.092000      0.0000000E+00
   1.104000      0.0000000E+00
   1.116000      0.0000000E+00
   1.128000      0.0000000E+00
   1.140000      0.0000000E+00
   1.152000      0.0000000E+00
   1.164000      0.0000000E+00
   1.176000      0.0000000E+00
   1.188000      0.0000000E+00
   1.200000      0.0000000E+00
   1.212000      0.0000000E+00
   1.224000      0.0000000E+00
   1.236000      0.0000000E+00
   1.248000      0.0000000E+00
   1.260000      0.0000000E+00
   1.272000      0.0000000E+00
   1.284000      0.0000000E+00
   1.296000      0.0000000E+00
   1.308000      0.0000000E+00
   1.320000      0.0000000E+00
   1.332000      0.0000000E+00
   1.344000      0.0000000E+00
   1.356000      0.0000000E+00
   1.368000      0.0000000E+00
   1.380000      0.0000000E+00
   1.392000      0.0000000E+00
   1.404000      0.0000000E+00
   1.416000      0.0000000E+00
   1.428000      0.0000000E+00
   1.440000      0.0000000E+00
   1.452000      0.0000000E+00
   1.464000      0.0000000E+00
   1.476000      0.0000000E+00
   1.488000      0.0000000E+00
   1.500000      0.0000000E+00
   1.512000      0.0000000E+00
   1.524000      0.0000000E+00
   1.536000      0.0000000E+00
   1.548000      0.0000000E+00
   1.560000      0.0000000E+00
   1.572000      0.0000000E+00
   1.584000      0.0000000E+00
   1.596000      0.0000000E+00
   1.608000      0.0000000E+00
   1.620000      0.0000000E+00
   1.632000      0.0000000E+00
   1.644000      0.0000000E+00
   1.656000      0.0000000E+00
   1.668000      0.0000000E+00
   1.680000      0.0000000E+00
   1.692000      0.0000000E+00
   1.704000      0.0000000E+00
   1.716000      0.0000000E+00
   1.728000      0.0000000E+00
   1.740000      0.0000000E+00
   1.752000      0.0000000E+00
   1.764000      0.0000000E+00
   1.776000      0.0000000E+00
   1.788000      0.0000000E+00
   1.800000      0.0000000E+00
   1.812000      0.0000000E+00
   1.824000      0.0000000E+00
   1.836000      0.0000000E+00
   1.848000      0.0000000E+00
   1.860000      0.0000000E+00
   1.872000      0.0000000E+00
   1.884000      0.0000000E+00
   1.896000      0.0000000E+00
   1.908000      0.0000000E+00
   1.920000      0.0000000E+00
   1.932000      0.0000000E+00
   1.944000      0.0000000E+00
   1.956000      0.0000000E+00
   1.968000      0.0000000E+00
   1.980000      0.0000000E+00
   1.992000      0.0000000E+00
   2.004000      0.0000000E+00
   2.016000      0.0000000E+00
   2.028000      0.0000000E+00
   2.040000      0.0000000E+00
   2.052000      0.0000000E+00
   2.064000      0.0000000E+00
   2.076000      0.0000000E+00
   2.088000      0.0000000E+00
   2.100000      0.0000000E+00
   2.112000      0.0000000E+00
   2.124000      0.0000000E+00
   2.136000      0.0000000E+00
   2.148000      0.0000000E+00
   2.160000      0.0000000E+00
   2.172000      0.0000000E+00
   2.184000      0.0000000E+00
   2.196000      0.0000000E+00
   2.208000      0.0000000E+00
   2.220000      0.0000000E+00
   2.232000      0.0000000E+00
   2.244000      0.0000000E+00
   2.256000      0.0000000E+00
   2.268000      0.0000000E+00
   2.280000      0.0000000E+00
   2.292000      0.0000000E+00
   2.304000      0.0000000E+00
   2.316000      0.0000000E+00
   2.328000      0.0000000E+00
   2.340000      0.0000000E+00
   2.352000      0.0000000E+00
   2.364000      0.0000000E+00
   2.376000      0.0000000E+00
   2.388000      0.0000000E+00
   2.400000      0.0000000E+00
   2.412000      0.0000000E+00
   2.424000      0.0000000E+00
   2.436000      0.0000000E+00
   2.448000      0.0000000E+00
   2.460000      0.0000000E+00
   2.472000      0.0000000E+00
   2.484000      0.0000000E+00
   2.496000      0.0000000E+00
   2.508000      0.0000000E+00
   2.520000      0.0000000E+00
   2.532000      0.0000000E+00
   2.544000      0.0000000E+00
   2.556000      0.0000000E+00
   2.568000      0.0000000E+00
   2.580000      0.0000000E+00
   2.592000      0.0000000E+00
   2.604000      0.0000000E+00
   2.616000      0.0000000E+00
   2.628000      0.0000000E+00
   2.640000      0.0000000E+00
   2.652000      0.0000000E+00
   2.664000      0.0000000E+00
   2.676000      0.0000000E+00
   2.688000      0.0000000E+00
   2.700000      0.0000000E+00
   2.712000      0.0000000E+00
   2.724000      0.0000000E+00
   2.736000      0.0000000E+00
   2.748000      0.0000000E+00
   2.760000      0.0000000E+00
   2.772000      0.0000000E+00
   2.784000      0.0000000E+00
   2.796000      0.0000000E+00
   2.808000      0.0000000E+00
   2.820000      0.0000000E+00
   2.832000      0.0000000E+00
   2.844000      0.0000000E+00
   2.856000      0.0000000E+00
   2.868000      0.0000000E+00
   2.880000      0.0000000E+00
   2.892000      0.0000000E+00
   2.904000      0.0000000E+00
   2.916000      0.0000000E+00
   2.928000      0.0000000E+00
   2.940000      0.0000000E+00
   2.952000      0.0000000E+00
   2.964000      0.0000000E+00
   2.976000      0.0000000E+00
   2.988000      0.0000000E+00
   3.000000      0.0000000E+00
   3.012000      0.0000000E+00
   3.024000      0.0000000E+00
   3.036000      0.0000000E+00
   3.048000      0.0000000E+00
   3.060000      0.0000000E+00
   3.072000      0.0000000E+00
   3.084000      0.0000000E+00
   3.096000      0.0000000E+00
   3.108000      0.0000000E+00
   3.120000      0.0000000E+00
   3.132000      0.0000000E+00
   3.144000      0.0000000E+00
   3.156000      0.0000000E+00
   3.168000      0.0000000E+00
   3.180000      0.0000000E+00
   3.192000      0.0000000E+00
   3.204000      0.0000000E+00
   3.216000      0.0000000E+00
   3.228000      0.0000000E+00
   3.240000      0.0000000E+00
   3.252000      0.0000000E+00
   3.264000      0.0000000E+00
   3.276000      0.0000000E+00
   3.288000      0.0000000E+00
   3.300000      0.0000000E+00
   3.312000      0.0000000E+00
   3.324000      0.0000000E+00
   3.336000      0.0000000E+00
   3.348000      0.0000000E+00
   3.360000      0.0000000E+00
   3.372000      0.0000000E+00
   3.384000      0.0000000E+00
   3.396000      0.0000000E+00
   3.408000      0.0000000E+00
   3.420000      0.0000000E+00
   3.432000      0.0000000E+00
   3.444000      0.0000000E+00
   3.456000      0.0000000E+00
   3.468000      0.0000000E+00
   3.480000      0.0000000E+00
   3.492000      0.0000000E+00
   3.504000      0.0000000E+00
   3.516000      0.0000000E+00
   3.528000      0.0000000E+00
   3.540000      0.0000000E+00
   3.552000      0.0000000E+00
   3.564000      0.0000000E+00
   3.576000      0.0000000E+00
   3.588000      0.0000000E+00
   3.600000      0.0000000E+00
   3.612000      0.0000000E+00
   3.624000      0.0000000E+00
   3.636000      0.0000000E+00
   3.648000      0.0000000E+00
   3.660000      0.0000000E+00
   3.672000      0.0000000E+00
   3.684000      0.0000000E+00
   3.696000      0.0000000E+00
   3.708000      0.0000000E+00
   3.720000      0.0000000E+00
   3.732000      0.0000000E+00
   3.744000      0.0000000E+00
   3.756000      0.0000000E+00
   3.768000      0.0000000E+00
   3.780000      0.0000000E+00
   3.792000      0.0000000E+00
   3.804000      0.0000000E+00
   3.816000      0.0000000E+00
   3.828000      0.0000000E+00
   3.840000      0.0000000E+00
   3.852000      0.0000000E+00
   3.864000      0.0000000E+00
   3.876000      0.0000000E+00
   3.888000      0.0000000E+00
   3.900000      0.0000000E+00
   3.912000      0.0000000E+00
   3.924000      0.0000000E+00
   3.936000      0.0000000E+00
   3.948000      0.0000000E+00
   3.960000      0.0000000E+00
   3.972000      0.0000000E+00
   3.984000      0.0000000E+00
   3.996000      0.0000000E+00
   4.008000      0.0000000E+00
   4.020000      0.0000000E+00
   4.032000      0.0000000E+00
   4.044000      0.0000000E+00
   4.056000      0.0000000E+00
   4.068000      0.0000000E+00
   4.080000      0.0000000E+00
   4.092000      0.0000000E+00
   4.104000      0.0000000E+00
   4.116000      0.0000000E+00
   4.128000      0.0000000E+00
   4.140000      0.0000000E+00
   4.152000      0.0000000E+00
   4.164000      0.0000000E+00
   4.176000      0.0000000E+00
   4.188000      0.0000000E+00
   4.200000      0.0000000E+00
   4.212000      0.0000000E+00
   4.224000      0.0000000E+00
   4.236000      0.0000000E+00
   4.248000      0.0000000E+00
   4.260000      0.0000000E+00
   4.272000      0.0000000E+00
   4.284000      0.0000000E+00
   4.296000      0.0000000E+00
   4.308000      0.0000000E+00
   4.320000      0.0000000E+00
   4.332000      0.0000000E+00
   4.344000      0.0000000E+00
   4.356000      0.0000000E+00
   4.368000      0.0000000E+00
   4.380000      0.0000000E+00
   4.392000      0.0000000E+00
   4.404000      0.0000000E+00
   4.416000      0.0000000E+00
   4.428000      0.0000000E+00
   4.440000     -1.6536582E-38
   4.452000     -1.7789236E-38
   4.464000     -1.3065909E-38
   4.476000      0.0000000E+00
   4.488000      0.0000000E+00
   4.500000      2.4927578E-38
   4.512000      3.3914539E-38
   4.524000      3.5440772E-38
   4.536000      2.8689857E-38
   4.548000      1.9669980E-38
   4.560000      0.0000000E+00
   4.572000      0.0000000E+00
   4.584000      0.0000000E+00
   4.596000      4.7320123E-38
   4.608000      1.4749976E-37
   4.620000      2.4812350E-37
   4.632000      2.8986751E-37
   4.644000      2.2440156E-37
   4.656000      4.2640004E-38
   4.668000     -2.1977878E-37
   4.680000     -4.5306230E-37
   4.692000     -5.9752156E-37
   4.704000     -4.5238403E-37
   4.716000      1.4078550E-38
   4.728000      6.0874522E-37
   4.740000      1.2335030E-36
   4.752000      1.6194289E-36
   4.764000      1.5287934E-36
   4.776000      9.4783093E-37
   4.788000     -5.2387201E-38
   4.800000     -1.2662623E-36
   4.812000     -2.4293260E-36
   4.824000     -3.0915415E-36
   4.836000     -3.0855259E-36
   4.848000     -2.3363212E-36
   4.860000     -1.0513159E-36
   4.872000      5.4783326E-37
   4.884000      2.1485144E-36
   4.896000      3.5743175E-36
   4.908000      4.2415304E-36
   4.920000      3.9510863E-36
   4.932000      2.6402985E-36
   4.944000      5.3252261E-37
   4.956000     -1.9691686E-36
   4.968000     -4.3045152E-36
   4.980000     -5.8411490E-36
   4.992000     -5.9040075E-36
   5.004000     -3.9065851E-36
   5.016000      4.8119266E-37
   5.028000      7.2221185E-36
   5.040000      1.5940016E-35
   5.052000      2.5706469E-35
   5.064000      3.4873720E-35
   5.076000      4.1636128E-35
   5.088000      4.3794971E-35
   5.100000      3.9677371E-35
   5.112000      2.7997429E-35
   5.124000      8.2478083E-36
   5.136000     -1.9499108E-35
   5.148000     -5.3922641E-35
   5.160000     -9.2244870E-35
   5.172000     -1.3071528E-34
   5.184000     -1.6433155E-34
   5.196000     -1.8749309E-34
   5.208000     -1.9419947E-34
   5.220000     -1.7886521E-34
   5.232000     -1.3680401E-34
   5.244000     -6.4939531E-35
   5.256000      3.7079348E-35
   5.268000      1.6622079E-34
   5.280000      3.1527427E-34
   5.292000      4.7275338E-34
   5.304000      6.2289689E-34
   5.316000      7.4597459E-34
   5.328000      8.1952537E-34
   5.340000      8.2008942E-34
   5.352000      7.2543760E-34
   5.364000      5.1742672E-34
   5.376000      1.8520422E-34
   5.388000     -2.7130926E-34
   5.400000     -8.3842447E-34
   5.412000     -1.4860736E-33
   5.424000     -2.1663538E-33
   5.436000     -2.8135005E-33
   5.448000     -3.3459337E-33
   5.460000     -3.6705079E-33
   5.472000     -3.6893206E-33
   5.484000     -3.3089736E-33
   5.496000     -2.4520898E-33
   5.508000     -1.0702852E-33
   5.520000      8.4204931E-34
   5.532000      3.2347816E-33
   5.544000      5.9912703E-33
   5.556000      8.9217200E-33
   5.568000      1.1762503E-32
   5.580000      1.4183249E-32
   5.592000      1.5803159E-32
   5.604000      1.6217392E-32
   5.616000      1.5033538E-32
   5.628000      1.1917088E-32
   5.640000      6.6435377E-33
   5.652000     -8.4666266E-34
   5.664000     -1.0395403E-32
   5.676000     -2.1582757E-32
   5.688000     -3.3698470E-32
   5.700000     -4.5736434E-32
   5.712000     -5.6419056E-32
   5.724000     -6.4257035E-32
   5.736000     -6.7647796E-32
   5.748000     -6.5012643E-32
   5.760000     -5.4968373E-32
   5.772000     -3.6524523E-32
   5.784000     -9.2921212E-33
   5.796000      2.6314931E-32
   5.808000      6.8909136E-32
   5.820000      1.1601533E-31
   5.832000      1.6404020E-31
   5.844000      2.0835012E-31
   5.856000      2.4347761E-31
   5.868000      2.6346752E-31
   5.880000      2.6236258E-31
   5.892000      2.3481290E-31
   5.904000      1.7677701E-31
   5.916000      8.6264241E-32
   5.928000     -3.5949018E-32
   5.940000     -1.8570959E-31
   5.952000     -3.5507441E-31
   5.964000     -5.3218414E-31
   5.976000     -7.0150649E-31
   5.988000     -8.4451153E-31
   6.000000     -9.4081292E-31
   6.012000     -9.6976619E-31
   6.024000     -9.1246639E-31
   6.036000     -7.5403237E-31
   6.048000     -4.8600955E-31
   6.060000     -1.0867121E-31
   6.072000      3.6703828E-31
   6.084000      9.1819547E-31
   6.096000      1.5094970E-30
   6.108000      2.0940023E-30
   6.120000      2.6151900E-30
   6.132000      3.0103927E-30
   6.144000      3.2155571E-30
   6.156000      3.1711170E-30
   6.168000      2.8286127E-30
   6.180000      2.1575544E-30
   6.192000      1.1518718E-30
   6.204000     -1.6475751E-31
   6.216000     -1.7354545E-30
   6.228000     -3.4692487E-30
   6.240000     -5.2433085E-30
   6.252000     -6.9086274E-30
   6.264000     -8.2992075E-30
   6.276000     -9.2444171E-30
   6.288000     -9.5838352E-30
   6.300000     -9.1834975E-30
   6.312000     -7.9521632E-30
   6.324000     -5.8559642E-30
   6.336000     -2.9297532E-30
   6.348000      7.1647617E-31
   6.360000      4.8974149E-30
   6.372000      9.3593552E-30
   6.384000      1.3794372E-29
   6.396000      1.7861192E-29
   6.408000      2.1211270E-29
   6.420000      2.3517896E-29
   6.432000      2.4505423E-29
   6.444000      2.3975366E-29
   6.456000      2.1826083E-29
   6.468000      1.8063140E-29
   6.480000      1.2798348E-29
   6.492000      6.2366423E-30
   6.504000     -1.3482191E-30
   6.516000     -9.6465377E-30
   6.528000     -1.8349570E-29
   6.540000     -2.7184444E-29
   6.552000     -3.5940080E-29
   6.564000     -4.4477044E-29
   6.576000     -5.2715170E-29
   6.588000     -6.0594974E-29
   6.600000     -6.8012332E-29
   6.612000     -7.4730283E-29
   6.624000     -8.0277009E-29
   6.636000     -8.3844614E-29
   6.648000     -8.4207977E-29
   6.660000     -7.9686682E-29
   6.672000     -6.8174357E-29
   6.684000     -4.7257975E-29
   6.696000     -1.4444396E-29
   6.708000      3.2498283E-29
   6.720000      9.5090420E-29
   6.732000      1.7360460E-28
   6.744000      2.6648594E-28
   6.756000      3.6979102E-28
   6.768000      4.7672640E-28
   6.780000      5.7737998E-28
   6.792000      6.5874570E-28
   6.804000      7.0513683E-28
   6.816000      6.9906534E-28
   6.828000      6.2263331E-28
   6.840000      4.5943507E-28
   6.852000      1.9690761E-28
   6.864000     -1.7100216E-28
   6.876000     -6.4106326E-28
   6.888000     -1.1981601E-27
   6.900000     -1.8132101E-27
   6.912000     -2.4419860E-27
   6.924000     -3.0252319E-27
   6.936000     -3.4904426E-27
   6.948000     -3.7555761E-27
   6.960000     -3.7348635E-27
   6.972000     -3.3466565E-27
   6.984000     -2.5230651E-27
   6.996000     -1.2208381E-27
   7.008000      5.6730741E-28
   7.020000      2.8019873E-27
   7.032000      5.3883549E-27
   7.044000      8.1706307E-27
   7.056000      1.0931401E-26
   7.068000      1.3396992E-26
   7.080000      1.5249949E-26
   7.092000      1.6149175E-26
   7.104000      1.5757623E-26
   7.116000      1.3776679E-26
   7.128000      9.9854206E-27
   7.140000      4.2820402E-27
   7.152000     -3.2761763E-27
   7.164000     -1.2438663E-26
   7.176000     -2.2738005E-26
   7.188000     -3.3481891E-26
   7.200000     -4.3765159E-26
   7.212000     -5.2505509E-26
   7.224000     -5.8505093E-26
   7.236000     -6.0538006E-26
   7.248000     -5.7461214E-26
   7.260000     -4.8343652E-26
   7.272000     -3.2605042E-26
   7.284000     -1.0153228E-26
   7.296000      1.8493571E-26
   7.308000      5.2114993E-26
   7.320000      8.8742908E-26
   7.332000      1.2567688E-25
   7.344000      1.5957297E-25
   7.356000      1.8661365E-25
   7.368000      2.0276075E-25
   7.380000      2.0408556E-25
   7.392000      1.8716163E-25
   7.404000      1.4949635E-25
   7.416000      8.9969136E-26
   7.428000      9.2354388E-27
   7.440000     -8.9948595E-26
   7.452000     -2.0252881E-25
   7.464000     -3.2112903E-25
   7.476000     -4.3623934E-25
   7.488000     -5.3664383E-25
   7.500000     -6.1009797E-25
   7.512000     -6.4424456E-25
   7.524000     -6.2773118E-25
   7.536000     -5.5146737E-25
   7.548000     -4.0993147E-25
   7.560000     -2.0241600E-25
   7.572000      6.5917920E-26
   7.584000      3.8331419E-25
   7.596000      7.3115775E-25
   7.608000      1.0842907E-24
   7.620000      1.4119960E-24
   7.632000      1.6796917E-24
   7.644000      1.8513179E-24
   7.656000      1.8923353E-24
   7.668000      1.7731771E-24
   7.680000      1.4729249E-24
   7.692000      9.8291122E-25
   7.704000      3.0990428E-25
   7.716000     -5.2150189E-25
   7.728000     -1.4676646E-24
   7.740000     -2.4661756E-24
   7.752000     -3.4379118E-24
   7.764000     -4.2910030E-24
   7.776000     -4.9267196E-24
   7.788000     -5.2471012E-24
   7.800000     -5.1639608E-24
   7.812000     -4.6086923E-24
   7.824000     -3.5421409E-24
   7.836000     -1.9636446E-24
   7.848000      8.1734445E-26
   7.860000      2.4987812E-24
   7.872000      5.1414258E-24
   7.884000      7.8165127E-24
   7.896000      1.0292525E-23
   7.908000      1.2313368E-23
   7.920000      1.3616883E-23
   7.932000      1.3957275E-23
   7.944000      1.3130114E-23
   7.956000      1.0998120E-23
   7.968000      7.5155386E-24
   7.980000      2.7486326E-24
   7.992000     -3.1102295E-24
   8.004000     -9.7373211E-24
   8.016000     -1.6683166E-23
   8.028000     -2.3390426E-23
   8.040000     -2.9224624E-23
   8.052000     -3.3517157E-23
   8.064000     -3.5618928E-23
   8.076000     -3.4961574E-23
   8.088000     -3.1122166E-23
   8.100000     -2.3886112E-23
   8.112000     -1.3302353E-23
   8.124000      2.7543463E-25
   8.136000      1.6167733E-23
   8.148000      3.3373521E-23
   8.160000      5.0603982E-23
   8.172000      6.6347626E-23
   8.184000      7.8966308E-23
   8.196000      8.6818882E-23
   8.208000      8.8406039E-23
   8.220000      8.2527100E-23
   8.232000      6.8436770E-23
   8.244000      4.5987909E-23
   8.256000      1.5745189E-23
   8.268000     -2.0945171E-23
   8.280000     -6.1943308E-23
   8.292000     -1.0437186E-22
   8.304000     -1.4474672E-22
   8.316000     -1.7918336E-22
   8.328000     -2.0367275E-22
   8.340000     -2.1441429E-22
   8.352000     -2.0818553E-22
   8.364000     -1.8272207E-22
   8.376000     -1.3707593E-22
   8.388000     -7.1917123E-23
   8.400000      1.0257704E-23
   8.412000      1.0504300E-22
   8.424000      2.0619668E-22
   8.436000      3.0588603E-22
   8.448000      3.9511412E-22
   8.460000      4.6431893E-22
   8.472000      5.0412079E-22
   8.484000      5.0617698E-22
   8.496000      4.6408589E-22
   8.508000      3.7427058E-22
   8.520000      2.3675925E-22
   8.532000      5.5779212E-23
   8.544000     -1.5991902E-22
   8.556000     -3.9708017E-22
   8.568000     -6.3835957E-22
   8.580000     -8.6316479E-22
   8.592000     -1.0489197E-21
   8.604000     -1.1727118E-21
   8.616000     -1.2132412E-21
   8.628000     -1.1529542E-21
   8.640000     -9.8020388E-22
   8.652000     -6.9125864E-22
   8.664000     -2.9195702E-22
   8.676000      2.0118975E-22
   8.688000      7.6063635E-22
   8.700000      1.3483357E-21
   8.712000      1.9172683E-21
   8.724000      2.4140028E-21
   8.736000      2.7822396E-21
   8.748000      2.9671990E-21
   8.760000      2.9206211E-21
   8.772000      2.6060503E-21
   8.784000      2.0040080E-21
   8.796000      1.1165915E-21
   8.808000     -2.8985539E-23
   8.820000     -1.3783852E-21
   8.832000     -2.8500997E-21
   8.844000     -4.3377000E-21
   8.856000     -5.7145769E-21
   8.868000     -6.8411973E-21
   8.880000     -7.5746884E-21
   8.892000     -7.7803566E-21
   8.904000     -7.3444963E-21
   8.916000     -6.1876478E-21
   8.928000     -4.2772879E-21
   8.940000     -1.6388041E-21
   8.952000      1.6364374E-21
   8.964000      5.3870885E-21
   8.976000      9.3828979E-21
   8.988000      1.3331638E-20
   9.000000      1.6892327E-20
   9.012000      1.9694707E-20
   9.024000      2.1364498E-20
   9.036000      2.1553344E-20
   9.048000      1.9971838E-20
   9.060000      1.6423495E-20
   9.072000      1.0837121E-20
   9.084000      3.2946794E-21
   9.096000     -5.9482740E-21
   9.108000     -1.6452525E-20
   9.120000     -2.7598038E-20
   9.132000     -3.8601656E-20
   9.144000     -4.8550791E-20
   9.156000     -5.6453164E-20
   9.168000     -6.1301418E-20
   9.180000     -6.2149976E-20
   9.192000     -5.8200350E-20
   9.204000     -4.8889589E-20
   9.216000     -3.3975452E-20
   9.228000     -1.3611330E-20
   9.240000      1.1596754E-20
   9.252000      4.0558449E-20
   9.264000      7.1699343E-20
   9.276000      1.0299858E-19
   9.288000      1.3206718E-19
   9.300000      1.5626785E-19
   9.312000      1.7287420E-19
   9.324000      1.7926361E-19
   9.336000      1.7313495E-19
   9.348000      1.5273846E-19
   9.360000      1.1710269E-19
   9.372000      6.6240720E-20
   9.384000      1.3166206E-21
   9.396000     -7.5246850E-20
   9.408000     -1.5973721E-19
   9.420000     -2.4721283E-19
   9.432000     -3.3166551E-19
   9.444000     -4.0629000E-19
   9.456000     -4.6385735E-19
   9.468000     -4.9718182E-19
   9.480000     -4.9966134E-19
   9.492000     -4.6586357E-19
   9.504000     -3.9212158E-19
   9.516000     -2.7709633E-19
   9.528000     -1.2225900E-19
   9.540000      6.7755366E-20
   9.552000      2.8496969E-19
   9.564000      5.1810375E-19
   9.576000      7.5286174E-19
   9.588000      9.7248740E-19
   9.600000      1.1585889E-18
   9.612000      1.2922144E-18
   9.624000      1.3551421E-18
   9.636000      1.3313207E-18
   9.648000      1.2083827E-18
   9.660000      9.7912625E-19
   9.672000      6.4285928E-19
   9.684000      2.0647948E-19
   9.696000     -3.1482551E-19
   9.708000     -8.9736896E-19
   9.720000     -1.5093386E-18
   9.732000     -2.1118163E-18
   9.744000     -2.6604684E-18
   9.756000     -3.1078894E-18
   9.768000     -3.4065260E-18
   9.780000     -3.5120637E-18
   9.792000     -3.3870943E-18
   9.804000     -3.0048527E-18
   9.816000     -2.3527504E-18
   9.828000     -1.4354323E-18
   9.840000     -2.7705425E-19
   9.852000      1.0774907E-18
   9.864000      2.5626494E-18
   9.876000      4.0937756E-18
   9.888000      5.5702934E-18
   9.900000      6.8804739E-18
   9.912000      7.9077069E-18
   9.924000      8.5380524E-18
   9.936000      8.6687089E-18
   9.948000      8.2169260E-18
   9.960000      7.1287873E-18
   9.972000      5.3872305E-18
   9.984000      3.0185889E-18
   9.996000      9.7007335E-20
   10.00800     -3.2539083E-18
   10.02000     -6.8627176E-18
   10.03200     -1.0515395E-17
   10.04400     -1.3964352E-17
   10.05600     -1.6941102E-17
   10.06800     -1.9172219E-17
   10.08000     -2.0397862E-17
   10.09200     -2.0391954E-17
   10.10400     -1.8982789E-17
   10.11600     -1.6072649E-17
   10.12800     -1.1654924E-17
   10.14000     -5.8271582E-18
   10.15200      1.2014722E-18
   10.16400      9.1095258E-18
   10.17600      1.7470513E-17
   10.18800      2.5768483E-17
   10.20000      3.3422071E-17
   10.21200      3.9816365E-17
   10.22400      4.4341480E-17
   10.23600      4.6435888E-17
   10.24800      4.5632219E-17
   10.26000      4.1602473E-17
   10.27200      3.4199415E-17
   10.28400      2.3490791E-17
   10.29600      9.7828343E-18
   10.30800     -6.3698830E-18
   10.32000     -2.4170811E-17
   10.33200     -4.2605645E-17
   10.34400     -6.0485041E-17
   10.35600     -7.6505233E-17
   10.36800     -8.9324521E-17
   10.38000     -9.7652364E-17
   10.39200     -1.0034627E-16
   10.40400     -9.6510815E-17
   10.41600     -8.5591812E-17
   10.42800     -6.7458564E-17
   10.44000     -4.2466698E-17
   10.45200     -1.1494678E-17
   10.46400      2.4051879E-17
   10.47600      6.2272618E-17
   10.48800      1.0084385E-16
   10.50000      1.3712888E-16
   10.51200      1.6832448E-16
   10.52400      1.9163738E-16
   10.53600      2.0448250E-16
   10.54800      2.0469123E-16
   10.56000      1.9071642E-16
   10.57200      1.6181905E-16
   10.58400      1.1822106E-16
   10.59600      6.1209254E-17
   10.60800     -6.8234493E-18
   10.62000     -8.2410013E-17
   10.63200     -1.6112157E-16
   10.64400     -2.3776228E-16
   10.65600     -3.0664305E-16
   10.66800     -3.6192474E-16
   10.68000     -3.9801546E-16
   10.69200     -4.1000002E-16
   10.70400     -3.9407562E-16
   10.71600     -3.4796325E-16
   10.72800     -2.7126249E-16
   10.74000     -1.6571775E-16
   10.75200     -3.5365091E-17
   10.76400      1.1346525E-16
   10.77600      2.7230979E-16
   10.78800      4.3090522E-16
   10.80000      5.7769283E-16
   10.81200      7.0048005E-16
   10.82400      7.8723226E-16
   10.83600      8.2695610E-16
   10.84800      8.1062249E-16
   10.86000      7.3207051E-16
   10.87200      5.8882469E-16
   10.88400      3.8275770E-16
   10.89600      1.2053169E-16
   10.90800     -1.8624216E-16
   10.92000     -5.2117318E-16
   10.93200     -8.6362061E-16
   10.94400     -1.1895929E-15
   10.95600     -1.4730027E-15
   10.96800     -1.6872362E-15
   10.98000     -1.8069665E-15
   10.99200     -1.8101223E-15
   11.00400     -1.6798883E-15
   11.01600     -1.4066085E-15
   11.02800     -9.8944693E-16
   11.04000     -4.3765597E-16
   11.05200      2.2868180E-16
   11.06400      9.7856255E-16
   11.07600      1.7707106E-15
   11.08800      2.5550228E-15
   11.10000      3.2748125E-15
   11.11200      3.8698098E-15
   11.12400      4.2798080E-15
   11.13600      4.4488030E-15
   11.14800      4.3294010E-15
   11.16000      3.8872455E-15
   11.17200      3.1051546E-15
   11.18400      1.9866700E-15
   11.19600      5.5868827E-16
   11.20800     -1.1271104E-15
   11.22000     -2.9942953E-15
   11.23200     -4.9433631E-15
   11.24400     -6.8551732E-15
   11.25600     -8.5961342E-15
   11.26800     -1.0025042E-14
   11.28000     -1.1001319E-14
   11.29200     -1.1394330E-14
   11.30400     -1.1093269E-14
   11.31600     -1.0017083E-14
   11.32800     -8.1237786E-15
   11.34000     -5.4184503E-15
   11.35200     -1.9593206E-15
   11.36400      2.1388179E-15
   11.37600      6.7043310E-15
   11.38800      1.1512056E-14
   11.40000      1.6290448E-14
   11.41200      2.0732585E-14
   11.42400      2.4510848E-14
   11.43600      2.7294788E-14
   11.44800      2.8771466E-14
   11.46000      2.8667335E-14
   11.47200      2.6770432E-14