 -0.1200000      0.0000000E+00
 -0.1080000      0.0000000E+00
 -9.6000001E-02  0.0000000E+00
 -8.3999999E-02  0.0000000E+00
 -7.1999997E-02  0.0000000E+00
 -5.9999999E-02  0.0000000E+00
 -4.8000000E-02  0.0000000E+00
 -3.5999998E-02  0.0000000E+00
 -2.4000000E-02  0.0000000E+00
 -1.2000000E-02  0.0000000E+00
  6.9388939E-18  0.0000000E+00
  1.2000000E-02  0.0000000E+00
  2.4000000E-02  0.0000000E+00
  3.5999998E-02  0.0000000E+00
  4.8000000E-02  0.0000000E+00
  5.9999999E-02  0.0000000E+00
  7.1999997E-02  0.0000000E+00
  8.3999999E-02  0.0000000E+00
  9.6000001E-02  0.0000000E+00
  0.1080000      0.0000000E+00
  0.1200000      0.0000000E+00
  0.1320000      0.0000000E+00
  0.1440000      0.0000000E+00
  0.1560000      0.0000000E+00
  0.1680000      0.0000000E+00
  0.1800000      0.0000000E+00
  0.1920000      0.0000000E+00
  0.2040000      0.0000000E+00
  0.2160000      0.0000000E+00
  0.2280000      0.0000000E+00
  0.2400000      0.0000000E+00
  0.2520000      0.0000000E+00
  0.2640000      0.0000000E+00
  0.2760000      0.0000000E+00
  0.2880000      0.0000000E+00
  0.3000000      0.0000000E+00
  0.3120000      0.0000000E+00
  0.3240000      0.0000000E+00
  0.3360000      0.0000000E+00
  0.3480000      0.0000000E+00
  0.3600000      0.0000000E+00
  0.3720000      0.0000000E+00
  0.3840000      0.0000000E+00
  0.3960000      0.0000000E+00
  0.4080000      0.0000000E+00
  0.4200000      0.0000000E+00
  0.4320000      0.0000000E+00
  0.4440000      0.0000000E+00
  0.4560000      0.0000000E+00
  0.4680000      0.0000000E+00
  0.4800000      0.0000000E+00
  0.4920000      0.0000000E+00
  0.5040000      0.0000000E+00
  0.5160000      0.0000000E+00
  0.5280000      0.0000000E+00
  0.5400000      0.0000000E+00
  0.5520000      0.0000000E+00
  0.5640000      0.0000000E+00
  0.5760000      0.0000000E+00
  0.5880000      0.0000000E+00
  0.6000000      0.0000000E+00
  0.6120000      0.0000000E+00
  0.6240000      0.0000000E+00
  0.6360000      0.0000000E+00
  0.6480000      0.0000000E+00
  0.6600000      0.0000000E+00
  0.6720000      0.0000000E+00
  0.6840000      0.0000000E+00
  0.6960000      0.0000000E+00
  0.7080000      0.0000000E+00
  0.7200000      0.0000000E+00
  0.7320000      0.0000000E+00
  0.7440000      0.0000000E+00
  0.7560000      0.0000000E+00
  0.7680000      0.0000000E+00
  0.7800000      0.0000000E+00
  0.7920000      0.0000000E+00
  0.8040000      0.0000000E+00
  0.8160000      0.0000000E+00
  0.8280000      0.0000000E+00
  0.8400000      0.0000000E+00
  0.8520000      0.0000000E+00
  0.8640000      0.0000000E+00
  0.8760000      0.0000000E+00
  0.8880000      0.0000000E+00
  0.9000000      0.0000000E+00
  0.9120000      0.0000000E+00
  0.9240000      0.0000000E+00
  0.9360000      0.0000000E+00
  0.9480000      0.0000000E+00
  0.9600000      0.0000000E+00
  0.9720000      0.0000000E+00
  0.9840000      0.0000000E+00
  0.9960000      0.0000000E+00
   1.008000      0.0000000E+00
   1.020000      0.0000000E+00
   1.032000      0.0000000E+00
   1.044000      0.0000000E+00
   1.056000      0.0000000E+00
   1.068000      0.0000000E+00
   1.080000      0.0000000E+00
   1.092000      0.0000000E+00
   1.104000      0.0000000E+00
   1.116000      0.0000000E+00
   1.128000      0.0000000E+00
   1.140000      0.0000000E+00
   1.152000      0.0000000E+00
   1.164000      0.0000000E+00
   1.176000      0.0000000E+00
   1.188000      0.0000000E+00
   1.200000      0.0000000E+00
   1.212000      0.0000000E+00
   1.224000      0.0000000E+00
   1.236000      0.0000000E+00
   1.248000      0.0000000E+00
   1.260000      0.0000000E+00
   1.272000      0.0000000E+00
   1.284000      0.0000000E+00
   1.296000      0.0000000E+00
   1.308000      0.0000000E+00
   1.320000      0.0000000E+00
   1.332000      0.0000000E+00
   1.344000      0.0000000E+00
   1.356000      0.0000000E+00
   1.368000      0.0000000E+00
   1.380000      0.0000000E+00
   1.392000      0.0000000E+00
   1.404000      0.0000000E+00
   1.416000      0.0000000E+00
   1.428000      0.0000000E+00
   1.440000      0.0000000E+00
   1.452000      0.0000000E+00
   1.464000      0.0000000E+00
   1.476000      0.0000000E+00
   1.488000      0.0000000E+00
   1.500000      0.0000000E+00
   1.512000      0.0000000E+00
   1.524000      0.0000000E+00
   1.536000      0.0000000E+00
   1.548000      0.0000000E+00
   1.560000      0.0000000E+00
   1.572000      0.0000000E+00
   1.584000      0.0000000E+00
   1.596000      0.0000000E+00
   1.608000      0.0000000E+00
   1.620000      0.0000000E+00
   1.632000      0.0000000E+00
   1.644000      0.0000000E+00
   1.656000      0.0000000E+00
   1.668000      0.0000000E+00
   1.680000      0.0000000E+00
   1.692000      0.0000000E+00
   1.704000      0.0000000E+00
   1.716000      0.0000000E+00
   1.728000      0.0000000E+00
   1.740000      0.0000000E+00
   1.752000      0.0000000E+00
   1.764000      0.0000000E+00
   1.776000      0.0000000E+00
   1.788000      0.0000000E+00
   1.800000      0.0000000E+00
   1.812000      0.0000000E+00
   1.824000      0.0000000E+00
   1.836000      0.0000000E+00
   1.848000      0.0000000E+00
   1.860000      0.0000000E+00
   1.872000      0.0000000E+00
   1.884000      0.0000000E+00
   1.896000      0.0000000E+00
   1.908000      0.0000000E+00
   1.920000      0.0000000E+00
   1.932000      0.0000000E+00
   1.944000      0.0000000E+00
   1.956000      0.0000000E+00
   1.968000      0.0000000E+00
   1.980000      0.0000000E+00
   1.992000      0.0000000E+00
   2.004000      0.0000000E+00
   2.016000      0.0000000E+00
   2.028000      0.0000000E+00
   2.040000      0.0000000E+00
   2.052000      0.0000000E+00
   2.064000      0.0000000E+00
   2.076000      0.0000000E+00
   2.088000      0.0000000E+00
   2.100000      0.0000000E+00
   2.112000      0.0000000E+00
   2.124000      0.0000000E+00
   2.136000      0.0000000E+00
   2.148000      0.0000000E+00
   2.160000      0.0000000E+00
   2.172000      0.0000000E+00
   2.184000      0.0000000E+00
   2.196000      0.0000000E+00
   2.208000      0.0000000E+00
   2.220000      0.0000000E+00
   2.232000      0.0000000E+00
   2.244000      0.0000000E+00
   2.256000      0.0000000E+00
   2.268000      0.0000000E+00
   2.280000      0.0000000E+00
   2.292000      0.0000000E+00
   2.304000      0.0000000E+00
   2.316000      0.0000000E+00
   2.328000      0.0000000E+00
   2.340000      0.0000000E+00
   2.352000      0.0000000E+00
   2.364000      0.0000000E+00
   2.376000      0.0000000E+00
   2.388000      0.0000000E+00
   2.400000      0.0000000E+00
   2.412000      0.0000000E+00
   2.424000      0.0000000E+00
   2.436000      0.0000000E+00
   2.448000      0.0000000E+00
   2.460000      0.0000000E+00
   2.472000      0.0000000E+00
   2.484000      0.0000000E+00
   2.496000      0.0000000E+00
   2.508000      0.0000000E+00
   2.520000      0.0000000E+00
   2.532000      0.0000000E+00
   2.544000      0.0000000E+00
   2.556000      0.0000000E+00
   2.568000      0.0000000E+00
   2.580000      0.0000000E+00
   2.592000      0.0000000E+00
   2.604000      0.0000000E+00
   2.616000      0.0000000E+00
   2.628000      0.0000000E+00
   2.640000      0.0000000E+00
   2.652000      0.0000000E+00
   2.664000      0.0000000E+00
   2.676000      0.0000000E+00
   2.688000      0.0000000E+00
   2.700000      0.0000000E+00
   2.712000      0.0000000E+00
   2.724000      0.0000000E+00
   2.736000      0.0000000E+00
   2.748000      0.0000000E+00
   2.760000      0.0000000E+00
   2.772000      0.0000000E+00
   2.784000      0.0000000E+00
   2.796000      0.0000000E+00
   2.808000      0.0000000E+00
   2.820000      0.0000000E+00
   2.832000      0.0000000E+00
   2.844000      0.0000000E+00
   2.856000      0.0000000E+00
   2.868000      0.0000000E+00
   2.880000      0.0000000E+00
   2.892000      0.0000000E+00
   2.904000      0.0000000E+00
   2.916000      0.0000000E+00
   2.928000      0.0000000E+00
   2.940000      0.0000000E+00
   2.952000      0.0000000E+00
   2.964000      0.0000000E+00
   2.976000      0.0000000E+00
   2.988000      0.0000000E+00
   3.000000      0.0000000E+00
   3.012000      0.0000000E+00
   3.024000      0.0000000E+00
   3.036000      0.0000000E+00
   3.048000      0.0000000E+00
   3.060000      0.0000000E+00
   3.072000      0.0000000E+00
   3.084000      0.0000000E+00
   3.096000      0.0000000E+00
   3.108000      0.0000000E+00
   3.120000      0.0000000E+00
   3.132000      0.0000000E+00
   3.144000      0.0000000E+00
   3.156000      0.0000000E+00
   3.168000      0.0000000E+00
   3.180000      0.0000000E+00
   3.192000      0.0000000E+00
   3.204000      0.0000000E+00
   3.216000      0.0000000E+00
   3.228000      0.0000000E+00
   3.240000      0.0000000E+00
   3.252000      0.0000000E+00
   3.264000      0.0000000E+00
   3.276000      0.0000000E+00
   3.288000      0.0000000E+00
   3.300000      0.0000000E+00
   3.312000      0.0000000E+00
   3.324000      0.0000000E+00
   3.336000      0.0000000E+00
   3.348000      0.0000000E+00
   3.360000      0.0000000E+00
   3.372000      0.0000000E+00
   3.384000      0.0000000E+00
   3.396000      0.0000000E+00
   3.408000      0.0000000E+00
   3.420000      0.0000000E+00
   3.432000      0.0000000E+00
   3.444000      0.0000000E+00
   3.456000      0.0000000E+00
   3.468000      0.0000000E+00
   3.480000      0.0000000E+00
   3.492000      0.0000000E+00
   3.504000      0.0000000E+00
   3.516000      0.0000000E+00
   3.528000      0.0000000E+00
   3.540000      0.0000000E+00
   3.552000      0.0000000E+00
   3.564000      0.0000000E+00
   3.576000      0.0000000E+00
   3.588000      0.0000000E+00
   3.600000      0.0000000E+00
   3.612000      0.0000000E+00
   3.624000      0.0000000E+00
   3.636000      0.0000000E+00
   3.648000      0.0000000E+00
   3.660000      0.0000000E+00
   3.672000      0.0000000E+00
   3.684000      0.0000000E+00
   3.696000      0.0000000E+00
   3.708000      0.0000000E+00
   3.720000      0.0000000E+00
   3.732000      0.0000000E+00
   3.744000      0.0000000E+00
   3.756000      0.0000000E+00
   3.768000      0.0000000E+00
   3.780000      0.0000000E+00
   3.792000      0.0000000E+00
   3.804000      0.0000000E+00
   3.816000      0.0000000E+00
   3.828000      0.0000000E+00
   3.840000      0.0000000E+00
   3.852000      0.0000000E+00
   3.864000      0.0000000E+00
   3.876000      0.0000000E+00
   3.888000      0.0000000E+00
   3.900000      0.0000000E+00
   3.912000      0.0000000E+00
   3.924000      0.0000000E+00
   3.936000      0.0000000E+00
   3.948000      0.0000000E+00
   3.960000      0.0000000E+00
   3.972000      0.0000000E+00
   3.984000     -1.1788904E-38
   3.996000      1.3289915E-38
   4.008000      5.1309877E-38
   4.020000      1.1885289E-37
   4.032000      1.5661861E-37
   4.044000      1.3719231E-37
   4.056000      5.4021216E-38
   4.068000     -9.1009128E-38
   4.080000     -2.8093736E-37
   4.092000     -4.1080686E-37
   4.104000     -2.4063633E-37
   4.116000      1.1005367E-37
   4.128000      7.3529449E-37
   4.140000      1.1085929E-36
   4.152000      8.2220194E-37
   4.164000      1.3410137E-37
   4.176000     -6.7022783E-37
   4.188000     -1.5609886E-36
   4.200000     -1.9163726E-36
   4.212000     -1.5391378E-36
   4.224000     -3.5479070E-37
   4.236000      1.3950070E-36
   4.248000      3.0772787E-36
   4.260000      4.0217447E-36
   4.272000      3.6160528E-36
   4.284000      1.5399491E-36
   4.296000     -1.7280743E-36
   4.308000     -5.4853647E-36
   4.320000     -8.2066424E-36
   4.332000     -8.5244807E-36
   4.344000     -5.1892548E-36
   4.356000      2.0740835E-36
   4.368000      1.2691598E-35
   4.380000      2.5639208E-35
   4.392000      3.8920050E-35
   4.404000      5.0093198E-35
   4.416000      5.6794968E-35
   4.428000      5.6971132E-35
   4.440000      4.9059349E-35
   4.452000      3.2077794E-35
   4.464000      5.4868922E-36
   4.476000     -3.0434068E-35
   4.488000     -7.4557600E-35
   4.500000     -1.2472737E-34
   4.512000     -1.7731037E-34
   4.524000     -2.2712215E-34
   4.536000     -2.6712250E-34
   4.548000     -2.8870297E-34
   4.560000     -2.8250706E-34
   4.572000     -2.3942848E-34
   4.584000     -1.5199716E-34
   4.596000     -1.6325784E-35
   4.608000      1.6655957E-34
   4.620000      3.8930697E-34
   4.632000      6.3755439E-34
   4.644000      8.8973976E-34
   4.656000      1.1176969E-33
   4.668000      1.2881757E-33
   4.680000      1.3652849E-33
   4.692000      1.3135289E-33
   4.704000      1.1016834E-33
   4.716000      7.0710458E-34
   4.728000      1.2033737E-34
   4.740000     -6.5023802E-34
   4.752000     -1.5745905E-33
   4.764000     -2.5983145E-33
   4.776000     -3.6418428E-33
   4.788000     -4.6022400E-33
   4.800000     -5.3579874E-33
   4.812000     -5.7772157E-33
   4.824000     -5.7286108E-33
   4.836000     -5.0949731E-33
   4.848000     -3.7881209E-33
   4.860000     -1.7638142E-33
   4.872000      9.6472711E-34
   4.884000      4.3163458E-33
   4.896000      8.1358829E-33
   4.908000      1.2193591E-32
   4.920000      1.6190713E-32
   4.932000      1.9771351E-32
   4.944000      2.2540201E-32
   4.956000      2.4085175E-32
   4.968000      2.4003464E-32
   4.980000      2.1929273E-32
   4.992000      1.7561429E-32
   5.004000      1.0689227E-32
   5.016000      1.2155369E-33
   5.028000     -1.0822919E-32
   5.040000     -2.5237091E-32
   5.052000     -4.1666564E-32
   5.064000     -5.9557109E-32
   5.076000     -7.8131401E-32
   5.088000     -9.6350787E-32
   5.100000     -1.1286795E-31
   5.112000     -1.2597463E-31
   5.124000     -1.3355354E-31
   5.136000     -1.3305070E-31
   5.148000     -1.2149057E-31
   5.160000     -9.5563259E-32
   5.172000     -5.1816349E-32
   5.184000      1.3016127E-32
   5.196000      1.0152083E-31
   5.208000      2.1493590E-31
   5.220000      3.5231418E-31
   5.232000      5.0956025E-31
   5.244000      6.7842166E-31
   5.256000      8.4556008E-31
   5.268000      9.9187414E-31
   5.280000      1.0922864E-30
   5.292000      1.1162349E-30
   5.304000      1.0291125E-30
   5.316000      7.9486834E-31
   5.328000      3.7991756E-31
   5.340000     -2.4161717E-31
   5.352000     -1.0814759E-30
   5.364000     -2.1300061E-30
   5.376000     -3.3486971E-30
   5.388000     -4.6633870E-30
   5.400000     -5.9592824E-30
   5.412000     -7.0791219E-30
   5.424000     -7.8259223E-30
   5.436000     -7.9716798E-30
   5.448000     -7.2731736E-30
   5.460000     -5.4955072E-30
   5.472000     -2.4433090E-30
   5.484000      2.0014666E-30
   5.496000      7.8374169E-30
   5.508000      1.4900813E-29
   5.520000      2.2826907E-29
   5.532000      3.1021528E-29
   5.544000      3.8649917E-29
   5.556000      4.4650071E-29
   5.568000      4.7777263E-29
   5.580000      4.6685132E-29
   5.592000      4.0045891E-29
   5.604000      2.6708676E-29
   5.616000      5.8901517E-30
   5.628000     -2.2614203E-29
   5.640000     -5.8215746E-29
   5.652000     -9.9338877E-29
   5.664000     -1.4327654E-28
   5.676000     -1.8612703E-28
   5.688000     -2.2284502E-28
   5.700000     -2.4743645E-28
   5.712000     -2.5332062E-28
   5.724000     -2.3387013E-28
   5.736000     -1.8312337E-28
   5.748000     -9.6643237E-29
   5.760000      2.7528608E-29
   5.772000      1.8789809E-28
   5.784000      3.7862618E-28
   5.796000      5.8883864E-28
   5.808000      8.0227313E-28
   5.820000      9.9739954E-28
   5.832000      1.1481392E-27
   5.844000      1.2252794E-27
   5.856000      1.1986315E-27
   5.868000      1.0399171E-27
   5.880000      7.2628605E-28
   5.892000      2.4426979E-28
   5.904000     -4.0611545E-28
   5.916000     -1.2075068E-27
   5.928000     -2.1220397E-27
   5.940000     -3.0894212E-27
   5.952000     -4.0267690E-27
   5.964000     -4.8307134E-27
   5.976000     -5.3821615E-27
   5.988000     -5.5539590E-27
   6.000000     -5.2214534E-27
   6.012000     -4.2756731E-27
   6.024000     -2.6384855E-27
   6.036000     -2.7875599E-28
   6.048000      2.7718406E-27
   6.060000      6.4050117E-27
   6.072000      1.0425922E-26
   6.084000      1.4549130E-26
   6.096000      1.8402307E-26
   6.108000      2.1539349E-26
   6.120000      2.3464037E-26
   6.132000      2.3664639E-26
   6.144000      2.1658894E-26
   6.156000      1.7047719E-26
   6.168000      9.5747083E-27
   6.180000     -8.1277662E-28
   6.192000     -1.3906248E-26
   6.204000     -2.9188836E-26
   6.216000     -4.5804974E-26
   6.228000     -6.2554069E-26
   6.240000     -7.7914596E-26
   6.252000     -9.0103797E-26
   6.264000     -9.7176225E-26
   6.276000     -9.7161452E-26
   6.288000     -8.8237932E-26
   6.300000     -6.8935935E-26
   6.312000     -3.8358266E-26
   6.324000      3.5969669E-27
   6.336000      5.6030787E-26
   6.348000      1.1687761E-25
   6.360000      1.8280334E-25
   6.372000      2.4919164E-25
   6.384000      3.1024031E-25
   6.396000      3.5918518E-25
   6.408000      3.8866235E-25
   6.420000      3.9120951E-25
   6.432000      3.5989533E-25
   6.444000      2.8905293E-25
   6.456000      1.7507825E-25
   6.468000      1.7239775E-26
   6.480000     -1.8156662E-25
   6.492000     -4.1419566E-25
   6.504000     -6.6884721E-25
   6.516000     -9.2896191E-25
   6.528000     -1.1734977E-24
   6.540000     -1.3776526E-24
   6.552000     -1.5140751E-24
   6.564000     -1.5545773E-24
   6.576000     -1.4723214E-24
   6.588000     -1.2444075E-24
   6.600000     -8.5474164E-25
   6.612000     -2.9700897E-25
   6.624000      4.2247056E-25
   6.636000      1.2822683E-24
   6.648000      2.2440484E-24
   6.660000      3.2517539E-24
   6.672000      4.2320695E-24
   6.684000      5.0964276E-24
   6.696000      5.7447486E-24
   6.708000      6.0710100E-24
   6.720000      5.9706231E-24
   6.732000      5.3494248E-24
   6.744000      4.1339226E-24
   6.756000      2.2822539E-24
   6.768000     -2.0488298E-25
   6.780000     -3.2742226E-24
   6.792000     -6.8118904E-24
   6.804000     -1.0638446E-23
   6.816000     -1.4508143E-23
   6.828000     -1.8113433E-23
   6.840000     -2.1095625E-23
   6.852000     -2.3062197E-23
   6.864000     -2.3610975E-23
   6.876000     -2.2360740E-23
   6.888000     -1.8987333E-23
   6.900000     -1.3263522E-23
   6.912000     -5.1003025E-24
   6.924000      5.4134448E-24
   6.936000      1.7976534E-23
   6.948000      3.2050362E-23
   6.960000      4.6847313E-23
   6.972000      6.1336731E-23
   6.984000      7.4272169E-23
   6.996000      8.4242481E-23
   7.008000      8.9748213E-23
   7.020000      8.9302910E-23
   7.032000      8.1556763E-23
   7.044000      6.5437703E-23
   7.056000      4.0302459E-23
   7.068000      6.0875000E-24
   7.080000     -3.6552394E-23
   7.092000     -8.6132169E-23
   7.104000     -1.4026630E-22
   7.116000     -1.9565553E-22
   7.128000     -2.4814482E-22
   7.140000     -2.9286374E-22
   7.152000     -3.2445662E-22
   7.164000     -3.3740432E-22
   7.176000     -3.2643180E-22
   7.188000     -2.8698772E-22
   7.200000     -2.1577378E-22
   7.212000     -1.1129149E-22
   7.224000      2.5633958E-23
   7.236000      1.9139997E-22
   7.248000      3.7929563E-22
   7.260000      5.7934778E-22
   7.272000      7.7839488E-22
   7.284000      9.6043414E-22
   7.296000      1.1072730E-21
   7.308000      1.1994994E-21
   7.320000      1.2177631E-21
   7.332000      1.1443315E-21
   7.344000      9.6485489E-22
   7.356000      6.7024591E-22
   7.368000      2.5854440E-22
   7.380000     -2.6338271E-22
   7.392000     -8.7847954E-22
   7.404000     -1.5586591E-21
   7.416000     -2.2646569E-21
   7.428000     -2.9467453E-21
   7.440000     -3.5464266E-21
   7.452000     -3.9991868E-21
   7.464000     -4.2383014E-21
   7.476000     -4.1996279E-21
   7.488000     -3.8271926E-21
   7.500000     -3.0793101E-21
   7.512000     -1.9348504E-21
   7.524000     -3.9919235E-22
   7.536000      1.4906755E-21
   7.548000      3.6624819E-21
   7.560000      6.0070159E-21
   7.572000      8.3790254E-21
   7.584000      1.0601125E-20
   7.596000      1.2471016E-20
   7.608000      1.3772127E-20
   7.620000      1.4287532E-20
   7.632000      1.3816692E-20
   7.644000      1.2194330E-20
   7.656000      9.3103314E-21
   7.668000      5.1293615E-21
   7.680000     -2.9140635E-22
   7.692000     -6.7881995E-21
   7.704000     -1.4082000E-20
   7.716000     -2.1777098E-20
   7.728000     -2.9368359E-20
   7.740000     -3.6258357E-20
   7.752000     -4.1784951E-20
   7.764000     -4.5259220E-20
   7.776000     -4.6012846E-20
   7.788000     -4.3453093E-20
   7.800000     -3.7122645E-20
   7.812000     -2.6760613E-20
   7.824000     -1.2360284E-20
   7.836000      5.7814173E-21
   7.848000      2.7028143E-20
   7.860000      5.0387287E-20
   7.872000      7.4516960E-20
   7.884000      9.7760748E-20
   7.896000      1.1821274E-19
   7.908000      1.3381364E-19
   7.920000      1.4247637E-19
   7.932000      1.4223723E-19
   7.944000      1.3142600E-19
   7.956000      1.0884536E-19
   7.968000      7.3948344E-20
   7.980000      2.6999678E-20
   7.992000     -3.0793627E-20
   8.004000     -9.7198000E-20
   8.016000     -1.6892991E-19
   8.028000     -2.4170623E-19
   8.040000     -3.1037750E-19
   8.052000     -3.6914982E-19
   8.064000     -4.1189378E-19
   8.076000     -4.3253414E-19
   8.088000     -4.2550522E-19
   8.100000     -3.8625015E-19
   8.112000     -3.1173555E-19
   8.124000     -2.0094600E-19
   8.136000     -5.5319086E-20
   8.148000      1.2092159E-19
   8.160000      3.2057708E-19
   8.172000      5.3346646E-19
   8.184000      7.4663509E-19
   8.196000      9.4479970E-19
   8.208000      1.1110391E-18
   8.220000      1.2277231E-18
   8.232000      1.2776529E-18
   8.244000      1.2453687E-18
   8.256000      1.1185575E-18
   8.268000      8.8947889E-19
   8.280000      5.5631003E-19
   8.292000      1.2429955E-19
   8.304000     -3.9338329E-19
   8.316000     -9.7521575E-19
   8.328000     -1.5914050E-18
   8.340000     -2.2045699E-18
   8.352000     -2.7710716E-18
   8.364000     -3.2430069E-18
   8.376000     -3.5708390E-18
   8.388000     -3.7065827E-18
   8.400000     -3.6074141E-18
   8.412000     -3.2395282E-18
   8.424000     -2.5820100E-18
   8.436000     -1.6304621E-18
   8.448000     -4.0008793E-19
   8.460000      1.0720627E-18
   8.472000      2.7259814E-18
   8.484000      4.4789841E-18
   8.496000      6.2275926E-18
   8.508000      7.8511509E-18
   8.520000      9.2172057E-18
   8.532000      1.0188578E-17
   8.544000      1.0631905E-17
   8.556000      1.0427331E-17
   8.568000      9.4788579E-18
   8.580000      7.7247709E-18
   8.592000      5.1474581E-18
   8.604000      1.7818496E-18
   8.616000     -2.2782938E-18
   8.628000     -6.8770109E-18
   8.640000     -1.1796385E-17
   8.652000     -1.6760957E-17
   8.664000     -2.1446677E-17
   8.676000     -2.5494519E-17
   8.688000     -2.8528612E-17
   8.700000     -3.0178378E-17
   8.712000     -3.0103882E-17
   8.724000     -2.8023221E-17
   8.736000     -2.3740477E-17
   8.748000     -1.7172480E-17
   8.760000     -8.3724666E-18
   8.772000      2.4513886E-18
   8.784000      1.4924631E-17
   8.796000      2.8504184E-17
   8.808000      4.2486597E-17
   8.820000      5.6028007E-17
   8.832000      6.8176345E-17
   8.844000      7.7915603E-17
   8.856000      8.4221234E-17
   8.868000      8.6124874E-17
   8.880000      8.2785566E-17
   8.892000      7.3564070E-17
   8.904000      5.8095905E-17
   8.916000      3.6358247E-17
   8.928000      8.7255230E-18
   8.940000     -2.3991619E-17
   8.952000     -6.0529054E-17
   8.964000     -9.9177996E-17
   8.976000     -1.3782347E-16
   8.988000     -1.7401449E-16
   9.000000     -2.0506637E-16
   9.012000     -2.2819369E-16
   9.024000     -2.4067033E-16
   9.036000     -2.4001033E-16
   9.048000     -2.2416176E-16
   9.060000     -1.9170313E-16
   9.072000     -1.4203071E-16
   9.084000     -7.5523092E-17
   9.096000      6.3301088E-18
   9.108000      1.0084939E-16
   9.120000      2.0414864E-16
   9.132000      3.1119101E-16
   9.144000      4.1592505E-16
   9.156000      5.1150430E-16
   9.168000      5.9058996E-16
   9.180000      6.4572990E-16
   9.192000      6.6980157E-16
   9.204000      6.5650226E-16
   9.216000      6.0086209E-16
   9.228000      4.9975209E-16
   9.240000      3.5235528E-16
   9.252000      1.6056604E-16
   9.264000     -7.0717424E-17
   9.276000     -3.3344127E-16
   9.288000     -6.1641505E-16
   9.300000     -9.0552534E-16
   9.312000     -1.1841604E-15
   9.324000     -1.4338492E-15
   9.336000     -1.6351088E-15
   9.348000     -1.7684782E-15
   9.360000     -1.8157015E-15
   9.372000     -1.7610124E-15
   9.384000     -1.5924544E-15
   9.396000     -1.3031628E-15
   9.408000     -8.9252433E-16
   9.420000     -3.6712663E-16
   9.432000      2.5858929E-16
   9.444000      9.6205663E-16
   9.456000      1.7127605E-15
   9.468000      2.4729207E-15
   9.480000      3.1987068E-15
   9.492000      3.8419907E-15
   9.504000      4.3526088E-15
   9.516000      4.6810611E-15
   9.528000      4.7815599E-15
   9.540000      4.6152801E-15
   9.552000      4.1536556E-15
   9.564000      3.3815275E-15
   9.576000      2.2999282E-15
   9.588000      9.2830015E-16
   9.600000     -6.9407717E-16
   9.612000     -2.5076364E-15
   9.624000     -4.4332116E-15
   9.636000     -6.3739839E-15
   9.648000     -8.2187370E-15
   9.660000     -9.8464116E-15
   9.672000     -1.1131861E-14
   9.684000     -1.1952639E-14
   9.696000     -1.2196543E-14
   9.708000     -1.1769590E-14
   9.720000     -1.0603987E-14
   9.732000     -8.6656595E-15
   9.744000     -5.9607932E-15
   9.756000     -2.5409227E-15
   9.768000      1.4939750E-15
   9.780000      5.9947918E-15
   9.792000      1.0765378E-14
   9.804000      1.5567658E-14
   9.816000      2.0129857E-14
   9.828000      2.4157776E-14
   9.840000      2.7348871E-14
   9.852000      2.9408632E-14
   9.864000      3.0068667E-14
   9.876000      2.9105631E-14
   9.888000      2.6359991E-14
   9.900000      2.1753549E-14
   9.912000      1.5304530E-14
   9.924000      7.1390376E-15
   9.936000     -2.5022338E-15
   9.948000     -1.3263048E-14
   9.960000     -2.4677197E-14
   9.972000     -3.6181131E-14
   9.984000     -4.7133792E-14
   9.996000     -5.6843426E-14
   10.00800     -6.4600702E-14
   10.02000     -6.9717052E-14
   10.03200     -7.1566566E-14
   10.04400     -6.9629673E-14
   10.05600     -6.3536118E-14
   10.06800     -5.3104788E-14
   10.08000     -3.8377718E-14
   10.09200     -1.9645466E-14
   10.10400      2.5384940E-15
   10.11600      2.7356643E-14
   10.12800      5.3741232E-14
   10.14000      8.0404040E-14
   10.15200      1.0588240E-13
   10.16400      1.2860073E-13
   10.17600      1.4694604E-13
   10.18800      1.5935473E-13
   10.20000      1.6440710E-13
   10.21200      1.6092507E-13
   10.22400      1.4806793E-13
   10.23600      1.2542056E-13
   10.24800      9.3067840E-14
   10.26000      5.1649735E-14
   10.27200      2.3913790E-15
   10.28400     -5.2896438E-14
   10.29600     -1.1184985E-13
   10.30800     -1.7161978E-13
   10.32000     -2.2897507E-13
   10.33200     -2.8043949E-13
   10.34400     -3.2245850E-13
   10.35600     -3.5158993E-13
   10.36800     -3.6471035E-13
   10.38000     -3.5922746E-13
   10.39200     -3.3328676E-13
   10.40400     -2.8596068E-13
   10.41600     -2.1740684E-13
   10.42800     -1.2898332E-13
   10.44000     -2.3309501E-14
   10.45200      9.5737295E-14
   10.46400      2.2309621E-13
   10.47600      3.5267224E-13
   10.48800      4.7756048E-13
   10.50000      5.9034071E-13
   10.51200      6.8343427E-13
   10.52400      7.4950847E-13
   10.53600      7.8191300E-13
   10.54800      7.7512497E-13
   10.56000      7.2518060E-13
   10.57200      6.3006631E-13
   10.58400      4.9004344E-13
   10.59600      3.0788097E-13
   10.60800      8.8973384E-14
   10.62000     -1.5867520E-13
   10.63200     -4.2461428E-13
   10.64400     -6.9626390E-13
   10.65600     -9.5938351E-13
   10.66800     -1.1986832E-12
   10.68000     -1.3985572E-12
   10.69200     -1.5439118E-12
   10.70400     -1.6210517E-12
   10.71600     -1.6185804E-12
   10.72800     -1.5282661E-12
   10.74000     -1.3458227E-12
   10.75200     -1.0715509E-12
   10.76400     -7.1079335E-13
   10.77600     -2.7415551E-13
   10.78800      2.2253946E-13
   10.80000      7.5858888E-13
   10.81200      1.3090508E-12
   10.82400      1.8456814E-12
   10.83600      2.3381462E-12
   10.84800      2.7554653E-12
   10.86000      3.0676375E-12
   10.87200      3.2473666E-12
   10.88400      3.2718106E-12
   10.89600      3.1242541E-12
   10.90800      2.7956103E-12
   10.92000      2.2856471E-12
   10.93200      1.6038530E-12
   10.94400      7.6985190E-13
   10.95600     -1.8669026E-13
   10.96800     -1.2267133E-12
   10.98000     -2.3029790E-12
   10.99200     -3.3618440E-12
   11.00400     -4.3455396E-12
   11.01600     -5.1948866E-12
   11.02800     -5.8523299E-12
   11.04000     -6.2651650E-12
   11.05200     -6.3887897E-12
   11.06400     -6.1898195E-12
   11.07600     -5.6488763E-12
   11.08800     -4.7628728E-12
   11.10000     -3.5466326E-12
   11.11200     -2.0336955E-12
   11.12400     -2.7619403E-13
   11.13600      1.6562665E-12
   11.14800      3.6787561E-12
   11.16000      5.6941617E-12
   11.17200      7.5972457E-12
   11.18400      9.2794696E-12
   11.19600      1.0634411E-11
   11.20800      1.1563511E-11
   11.22000      1.1981889E-11
   11.23200      1.1823924E-11
   11.24400      1.1048280E-11
   11.25600      9.6420727E-12
   11.26800      7.6238764E-12
   11.28000      5.0453448E-12
   11.29200      1.9912266E-12
   11.30400     -1.4223388E-12
   11.31600     -5.0512958E-12
   11.32800     -8.7288683E-12
   11.34000     -1.2272341E-11
   11.35200     -1.5491202E-11
   11.36400     -1.8196304E-11
   11.37600     -2.0209683E-11
   11.38800     -2.1374529E-11
   11.40000     -2.1564842E-11
   11.41200     -2.0694235E-11
   11.42400     -1.8723351E-11
   11.43600     -1.5665434E-11
   11.44800     -1.1589617E-11
   11.46000     -6.6215974E-12
   11.47200     -9.4146034E-13