 -0.1200000      0.0000000E+00
 -0.1080000      0.0000000E+00
 -9.6000001E-02  0.0000000E+00
 -8.3999999E-02  0.0000000E+00
 -7.1999997E-02  0.0000000E+00
 -5.9999999E-02  0.0000000E+00
 -4.8000000E-02  0.0000000E+00
 -3.5999998E-02  0.0000000E+00
 -2.4000000E-02  0.0000000E+00
 -1.2000000E-02  0.0000000E+00
  6.9388939E-18  0.0000000E+00
  1.2000000E-02  0.0000000E+00
  2.4000000E-02  0.0000000E+00
  3.5999998E-02  0.0000000E+00
  4.8000000E-02  0.0000000E+00
  5.9999999E-02  0.0000000E+00
  7.1999997E-02  0.0000000E+00
  8.3999999E-02  0.0000000E+00
  9.6000001E-02  0.0000000E+00
  0.1080000      0.0000000E+00
  0.1200000      0.0000000E+00
  0.1320000      0.0000000E+00
  0.1440000      0.0000000E+00
  0.1560000      0.0000000E+00
  0.1680000      0.0000000E+00
  0.1800000      0.0000000E+00
  0.1920000      0.0000000E+00
  0.2040000      0.0000000E+00
  0.2160000      0.0000000E+00
  0.2280000      0.0000000E+00
  0.2400000      0.0000000E+00
  0.2520000      0.0000000E+00
  0.2640000      0.0000000E+00
  0.2760000      0.0000000E+00
  0.2880000      0.0000000E+00
  0.3000000      0.0000000E+00
  0.3120000      0.0000000E+00
  0.3240000      0.0000000E+00
  0.3360000      0.0000000E+00
  0.3480000      0.0000000E+00
  0.3600000      0.0000000E+00
  0.3720000      0.0000000E+00
  0.3840000      0.0000000E+00
  0.3960000      0.0000000E+00
  0.4080000      0.0000000E+00
  0.4200000      0.0000000E+00
  0.4320000      0.0000000E+00
  0.4440000      0.0000000E+00
  0.4560000      0.0000000E+00
  0.4680000      0.0000000E+00
  0.4800000      0.0000000E+00
  0.4920000      0.0000000E+00
  0.5040000      0.0000000E+00
  0.5160000      0.0000000E+00
  0.5280000      0.0000000E+00
  0.5400000      0.0000000E+00
  0.5520000      0.0000000E+00
  0.5640000      0.0000000E+00
  0.5760000      0.0000000E+00
  0.5880000      0.0000000E+00
  0.6000000      0.0000000E+00
  0.6120000      0.0000000E+00
  0.6240000      0.0000000E+00
  0.6360000      0.0000000E+00
  0.6480000      0.0000000E+00
  0.6600000      0.0000000E+00
  0.6720000      0.0000000E+00
  0.6840000      0.0000000E+00
  0.6960000      0.0000000E+00
  0.7080000      0.0000000E+00
  0.7200000      0.0000000E+00
  0.7320000      0.0000000E+00
  0.7440000      0.0000000E+00
  0.7560000      0.0000000E+00
  0.7680000      0.0000000E+00
  0.7800000      0.0000000E+00
  0.7920000      0.0000000E+00
  0.8040000      0.0000000E+00
  0.8160000      0.0000000E+00
  0.8280000      0.0000000E+00
  0.8400000      0.0000000E+00
  0.8520000      0.0000000E+00
  0.8640000      0.0000000E+00
  0.8760000      0.0000000E+00
  0.8880000      0.0000000E+00
  0.9000000      0.0000000E+00
  0.9120000      0.0000000E+00
  0.9240000      0.0000000E+00
  0.9360000      0.0000000E+00
  0.9480000      0.0000000E+00
  0.9600000      0.0000000E+00
  0.9720000      0.0000000E+00
  0.9840000      0.0000000E+00
  0.9960000      0.0000000E+00
   1.008000      0.0000000E+00
   1.020000      0.0000000E+00
   1.032000      0.0000000E+00
   1.044000      0.0000000E+00
   1.056000      0.0000000E+00
   1.068000      0.0000000E+00
   1.080000      0.0000000E+00
   1.092000      0.0000000E+00
   1.104000      0.0000000E+00
   1.116000      0.0000000E+00
   1.128000      0.0000000E+00
   1.140000      0.0000000E+00
   1.152000      0.0000000E+00
   1.164000      0.0000000E+00
   1.176000      0.0000000E+00
   1.188000      0.0000000E+00
   1.200000      0.0000000E+00
   1.212000      0.0000000E+00
   1.224000      0.0000000E+00
   1.236000      0.0000000E+00
   1.248000      0.0000000E+00
   1.260000      0.0000000E+00
   1.272000      0.0000000E+00
   1.284000      0.0000000E+00
   1.296000      0.0000000E+00
   1.308000      0.0000000E+00
   1.320000      0.0000000E+00
   1.332000      0.0000000E+00
   1.344000      0.0000000E+00
   1.356000      0.0000000E+00
   1.368000      0.0000000E+00
   1.380000      0.0000000E+00
   1.392000      0.0000000E+00
   1.404000      0.0000000E+00
   1.416000      0.0000000E+00
   1.428000      0.0000000E+00
   1.440000      0.0000000E+00
   1.452000      0.0000000E+00
   1.464000      0.0000000E+00
   1.476000      0.0000000E+00
   1.488000      0.0000000E+00
   1.500000      0.0000000E+00
   1.512000      0.0000000E+00
   1.524000      0.0000000E+00
   1.536000      0.0000000E+00
   1.548000      0.0000000E+00
   1.560000      0.0000000E+00
   1.572000      0.0000000E+00
   1.584000      0.0000000E+00
   1.596000      0.0000000E+00
   1.608000      0.0000000E+00
   1.620000      0.0000000E+00
   1.632000      0.0000000E+00
   1.644000      0.0000000E+00
   1.656000      0.0000000E+00
   1.668000      0.0000000E+00
   1.680000      0.0000000E+00
   1.692000      0.0000000E+00
   1.704000      0.0000000E+00
   1.716000      0.0000000E+00
   1.728000      0.0000000E+00
   1.740000      0.0000000E+00
   1.752000      0.0000000E+00
   1.764000      0.0000000E+00
   1.776000      0.0000000E+00
   1.788000      0.0000000E+00
   1.800000      0.0000000E+00
   1.812000      0.0000000E+00
   1.824000      0.0000000E+00
   1.836000      0.0000000E+00
   1.848000      0.0000000E+00
   1.860000      0.0000000E+00
   1.872000      0.0000000E+00
   1.884000      0.0000000E+00
   1.896000      0.0000000E+00
   1.908000      0.0000000E+00
   1.920000      0.0000000E+00
   1.932000      0.0000000E+00
   1.944000      0.0000000E+00
   1.956000      0.0000000E+00
   1.968000      0.0000000E+00
   1.980000      0.0000000E+00
   1.992000      0.0000000E+00
   2.004000      0.0000000E+00
   2.016000      0.0000000E+00
   2.028000      0.0000000E+00
   2.040000      0.0000000E+00
   2.052000      0.0000000E+00
   2.064000      0.0000000E+00
   2.076000      0.0000000E+00
   2.088000      0.0000000E+00
   2.100000      0.0000000E+00
   2.112000      0.0000000E+00
   2.124000      0.0000000E+00
   2.136000      0.0000000E+00
   2.148000      0.0000000E+00
   2.160000      0.0000000E+00
   2.172000      0.0000000E+00
   2.184000      0.0000000E+00
   2.196000      0.0000000E+00
   2.208000      0.0000000E+00
   2.220000      0.0000000E+00
   2.232000      0.0000000E+00
   2.244000      0.0000000E+00
   2.256000      0.0000000E+00
   2.268000      0.0000000E+00
   2.280000      0.0000000E+00
   2.292000      0.0000000E+00
   2.304000      0.0000000E+00
   2.316000      0.0000000E+00
   2.328000      0.0000000E+00
   2.340000      0.0000000E+00
   2.352000      0.0000000E+00
   2.364000      0.0000000E+00
   2.376000      0.0000000E+00
   2.388000      0.0000000E+00
   2.400000      0.0000000E+00
   2.412000      0.0000000E+00
   2.424000      0.0000000E+00
   2.436000      0.0000000E+00
   2.448000      0.0000000E+00
   2.460000      0.0000000E+00
   2.472000      0.0000000E+00
   2.484000      0.0000000E+00
   2.496000      0.0000000E+00
   2.508000      0.0000000E+00
   2.520000      0.0000000E+00
   2.532000      0.0000000E+00
   2.544000      0.0000000E+00
   2.556000      0.0000000E+00
   2.568000      0.0000000E+00
   2.580000      0.0000000E+00
   2.592000      0.0000000E+00
   2.604000      0.0000000E+00
   2.616000      0.0000000E+00
   2.628000      0.0000000E+00
   2.640000      0.0000000E+00
   2.652000      0.0000000E+00
   2.664000      0.0000000E+00
   2.676000      0.0000000E+00
   2.688000      0.0000000E+00
   2.700000      0.0000000E+00
   2.712000      0.0000000E+00
   2.724000      0.0000000E+00
   2.736000      0.0000000E+00
   2.748000      0.0000000E+00
   2.760000      0.0000000E+00
   2.772000      0.0000000E+00
   2.784000      0.0000000E+00
   2.796000      0.0000000E+00
   2.808000      0.0000000E+00
   2.820000      0.0000000E+00
   2.832000      0.0000000E+00
   2.844000      0.0000000E+00
   2.856000      0.0000000E+00
   2.868000      0.0000000E+00
   2.880000      0.0000000E+00
   2.892000      0.0000000E+00
   2.904000      0.0000000E+00
   2.916000      0.0000000E+00
   2.928000      0.0000000E+00
   2.940000      0.0000000E+00
   2.952000      0.0000000E+00
   2.964000      0.0000000E+00
   2.976000      0.0000000E+00
   2.988000      0.0000000E+00
   3.000000      0.0000000E+00
   3.012000      0.0000000E+00
   3.024000      0.0000000E+00
   3.036000      0.0000000E+00
   3.048000      0.0000000E+00
   3.060000      0.0000000E+00
   3.072000      0.0000000E+00
   3.084000      0.0000000E+00
   3.096000      0.0000000E+00
   3.108000      0.0000000E+00
   3.120000      0.0000000E+00
   3.132000      0.0000000E+00
   3.144000      0.0000000E+00
   3.156000      0.0000000E+00
   3.168000      0.0000000E+00
   3.180000      0.0000000E+00
   3.192000      0.0000000E+00
   3.204000      0.0000000E+00
   3.216000      0.0000000E+00
   3.228000      0.0000000E+00
   3.240000      0.0000000E+00
   3.252000      0.0000000E+00
   3.264000      0.0000000E+00
   3.276000      0.0000000E+00
   3.288000      0.0000000E+00
   3.300000      0.0000000E+00
   3.312000      0.0000000E+00
   3.324000      0.0000000E+00
   3.336000      0.0000000E+00
   3.348000      0.0000000E+00
   3.360000      0.0000000E+00
   3.372000      0.0000000E+00
   3.384000      0.0000000E+00
   3.396000      0.0000000E+00
   3.408000      0.0000000E+00
   3.420000      0.0000000E+00
   3.432000      0.0000000E+00
   3.444000      0.0000000E+00
   3.456000      0.0000000E+00
   3.468000      0.0000000E+00
   3.480000      0.0000000E+00
   3.492000      0.0000000E+00
   3.504000      0.0000000E+00
   3.516000      0.0000000E+00
   3.528000      0.0000000E+00
   3.540000      0.0000000E+00
   3.552000      0.0000000E+00
   3.564000      0.0000000E+00
   3.576000      0.0000000E+00
   3.588000      0.0000000E+00
   3.600000      0.0000000E+00
   3.612000      0.0000000E+00
   3.624000      0.0000000E+00
   3.636000      0.0000000E+00
   3.648000      0.0000000E+00
   3.660000      0.0000000E+00
   3.672000      0.0000000E+00
   3.684000      0.0000000E+00
   3.696000      0.0000000E+00
   3.708000      0.0000000E+00
   3.720000      0.0000000E+00
   3.732000      0.0000000E+00
   3.744000      0.0000000E+00
   3.756000      0.0000000E+00
   3.768000      0.0000000E+00
   3.780000      0.0000000E+00
   3.792000      0.0000000E+00
   3.804000      0.0000000E+00
   3.816000      0.0000000E+00
   3.828000      0.0000000E+00
   3.840000      0.0000000E+00
   3.852000      0.0000000E+00
   3.864000      0.0000000E+00
   3.876000      0.0000000E+00
   3.888000      0.0000000E+00
   3.900000      0.0000000E+00
   3.912000      0.0000000E+00
   3.924000      0.0000000E+00
   3.936000      0.0000000E+00
   3.948000      0.0000000E+00
   3.960000      0.0000000E+00
   3.972000      0.0000000E+00
   3.984000      0.0000000E+00
   3.996000      0.0000000E+00
   4.008000      0.0000000E+00
   4.020000      0.0000000E+00
   4.032000      0.0000000E+00
   4.044000      0.0000000E+00
   4.056000      0.0000000E+00
   4.068000      0.0000000E+00
   4.080000      0.0000000E+00
   4.092000      0.0000000E+00
   4.104000      0.0000000E+00
   4.116000      0.0000000E+00
   4.128000      0.0000000E+00
   4.140000      0.0000000E+00
   4.152000      0.0000000E+00
   4.164000      0.0000000E+00
   4.176000      0.0000000E+00
   4.188000      0.0000000E+00
   4.200000      0.0000000E+00
   4.212000      0.0000000E+00
   4.224000      0.0000000E+00
   4.236000      0.0000000E+00
   4.248000      0.0000000E+00
   4.260000      0.0000000E+00
   4.272000      0.0000000E+00
   4.284000      0.0000000E+00
   4.296000      0.0000000E+00
   4.308000      0.0000000E+00
   4.320000      0.0000000E+00
   4.332000      0.0000000E+00
   4.344000      0.0000000E+00
   4.356000      0.0000000E+00
   4.368000      0.0000000E+00
   4.380000      0.0000000E+00
   4.392000      0.0000000E+00
   4.404000      0.0000000E+00
   4.416000      0.0000000E+00
   4.428000      0.0000000E+00
   4.440000      0.0000000E+00
   4.452000      0.0000000E+00
   4.464000      0.0000000E+00
   4.476000      0.0000000E+00
   4.488000      0.0000000E+00
   4.500000      0.0000000E+00
   4.512000      0.0000000E+00
   4.524000      0.0000000E+00
   4.536000      0.0000000E+00
   4.548000      0.0000000E+00
   4.560000      0.0000000E+00
   4.572000      0.0000000E+00
   4.584000      0.0000000E+00
   4.596000      0.0000000E+00
   4.608000      0.0000000E+00
   4.620000      0.0000000E+00
   4.632000      0.0000000E+00
   4.644000      0.0000000E+00
   4.656000      0.0000000E+00
   4.668000      0.0000000E+00
   4.680000      0.0000000E+00
   4.692000      0.0000000E+00
   4.704000      0.0000000E+00
   4.716000      0.0000000E+00
   4.728000      0.0000000E+00
   4.740000      0.0000000E+00
   4.752000      0.0000000E+00
   4.764000      0.0000000E+00
   4.776000      0.0000000E+00
   4.788000      0.0000000E+00
   4.800000      0.0000000E+00
   4.812000      0.0000000E+00
   4.824000      0.0000000E+00
   4.836000      0.0000000E+00
   4.848000      0.0000000E+00
   4.860000      0.0000000E+00
   4.872000      0.0000000E+00
   4.884000      0.0000000E+00
   4.896000      0.0000000E+00
   4.908000      0.0000000E+00
   4.920000      0.0000000E+00
   4.932000      0.0000000E+00
   4.944000      0.0000000E+00
   4.956000      0.0000000E+00
   4.968000      0.0000000E+00
   4.980000      0.0000000E+00
   4.992000      0.0000000E+00
   5.004000      0.0000000E+00
   5.016000      0.0000000E+00
   5.028000      0.0000000E+00
   5.040000      0.0000000E+00
   5.052000      0.0000000E+00
   5.064000      0.0000000E+00
   5.076000      0.0000000E+00
   5.088000      0.0000000E+00
   5.100000      0.0000000E+00
   5.112000      0.0000000E+00
   5.124000      0.0000000E+00
   5.136000      0.0000000E+00
   5.148000      0.0000000E+00
   5.160000      0.0000000E+00
   5.172000      0.0000000E+00
   5.184000      0.0000000E+00
   5.196000      0.0000000E+00
   5.208000      0.0000000E+00
   5.220000      0.0000000E+00
   5.232000      0.0000000E+00
   5.244000      0.0000000E+00
   5.256000      0.0000000E+00
   5.268000      0.0000000E+00
   5.280000      0.0000000E+00
   5.292000      0.0000000E+00
   5.304000      0.0000000E+00
   5.316000      0.0000000E+00
   5.328000      0.0000000E+00
   5.340000      0.0000000E+00
   5.352000      0.0000000E+00
   5.364000      0.0000000E+00
   5.376000      0.0000000E+00
   5.388000      0.0000000E+00
   5.400000      0.0000000E+00
   5.412000      0.0000000E+00
   5.424000      0.0000000E+00
   5.436000      0.0000000E+00
   5.448000      0.0000000E+00
   5.460000      0.0000000E+00
   5.472000      0.0000000E+00
   5.484000      0.0000000E+00
   5.496000      0.0000000E+00
   5.508000      0.0000000E+00
   5.520000      0.0000000E+00
   5.532000      0.0000000E+00
   5.544000      0.0000000E+00
   5.556000      0.0000000E+00
   5.568000      0.0000000E+00
   5.580000      0.0000000E+00
   5.592000      0.0000000E+00
   5.604000      0.0000000E+00
   5.616000      0.0000000E+00
   5.628000      0.0000000E+00
   5.640000      0.0000000E+00
   5.652000      0.0000000E+00
   5.664000      0.0000000E+00
   5.676000      0.0000000E+00
   5.688000      0.0000000E+00
   5.700000      0.0000000E+00
   5.712000      0.0000000E+00
   5.724000      0.0000000E+00
   5.736000      0.0000000E+00
   5.748000      0.0000000E+00
   5.760000      0.0000000E+00
   5.772000      0.0000000E+00
   5.784000      0.0000000E+00
   5.796000      0.0000000E+00
   5.808000      0.0000000E+00
   5.820000      0.0000000E+00
   5.832000      0.0000000E+00
   5.844000      0.0000000E+00
   5.856000      0.0000000E+00
   5.868000      0.0000000E+00
   5.880000      0.0000000E+00
   5.892000      0.0000000E+00
   5.904000      0.0000000E+00
   5.916000      0.0000000E+00
   5.928000      0.0000000E+00
   5.940000      0.0000000E+00
   5.952000      0.0000000E+00
   5.964000      0.0000000E+00
   5.976000      0.0000000E+00
   5.988000      0.0000000E+00
   6.000000      0.0000000E+00
   6.012000      0.0000000E+00
   6.024000      0.0000000E+00
   6.036000      0.0000000E+00
   6.048000      0.0000000E+00
   6.060000      0.0000000E+00
   6.072000      0.0000000E+00
   6.084000      0.0000000E+00
   6.096000      0.0000000E+00
   6.108000      0.0000000E+00
   6.120000      0.0000000E+00
   6.132000      0.0000000E+00
   6.144000      0.0000000E+00
   6.156000      0.0000000E+00
   6.168000      0.0000000E+00
   6.180000      0.0000000E+00
   6.192000      0.0000000E+00
   6.204000      0.0000000E+00
   6.216000      0.0000000E+00
   6.228000      0.0000000E+00
   6.240000      0.0000000E+00
   6.252000      0.0000000E+00
   6.264000      0.0000000E+00
   6.276000      0.0000000E+00
   6.288000      0.0000000E+00
   6.300000      0.0000000E+00
   6.312000      0.0000000E+00
   6.324000      0.0000000E+00
   6.336000      0.0000000E+00
   6.348000      0.0000000E+00
   6.360000      0.0000000E+00
   6.372000      0.0000000E+00
   6.384000      0.0000000E+00
   6.396000      0.0000000E+00
   6.408000      0.0000000E+00
   6.420000      0.0000000E+00
   6.432000      0.0000000E+00
   6.444000      0.0000000E+00
   6.456000      0.0000000E+00
   6.468000      0.0000000E+00
   6.480000      0.0000000E+00
   6.492000      0.0000000E+00
   6.504000      0.0000000E+00
   6.516000      0.0000000E+00
   6.528000      0.0000000E+00
   6.540000      0.0000000E+00
   6.552000      0.0000000E+00
   6.564000      0.0000000E+00
   6.576000      0.0000000E+00
   6.588000      0.0000000E+00
   6.600000      0.0000000E+00
   6.612000      0.0000000E+00
   6.624000      0.0000000E+00
   6.636000      0.0000000E+00
   6.648000      0.0000000E+00
   6.660000      0.0000000E+00
   6.672000      0.0000000E+00
   6.684000      0.0000000E+00
   6.696000      0.0000000E+00
   6.708000      0.0000000E+00
   6.720000      0.0000000E+00
   6.732000      0.0000000E+00
   6.744000      0.0000000E+00
   6.756000      0.0000000E+00
   6.768000      0.0000000E+00
   6.780000      0.0000000E+00
   6.792000      0.0000000E+00
   6.804000      0.0000000E+00
   6.816000      0.0000000E+00
   6.828000      0.0000000E+00
   6.840000      0.0000000E+00
   6.852000      0.0000000E+00
   6.864000      0.0000000E+00
   6.876000      0.0000000E+00
   6.888000      0.0000000E+00
   6.900000      0.0000000E+00
   6.912000      0.0000000E+00
   6.924000      0.0000000E+00
   6.936000      0.0000000E+00
   6.948000      0.0000000E+00
   6.960000      0.0000000E+00
   6.972000      0.0000000E+00
   6.984000      0.0000000E+00
   6.996000      0.0000000E+00
   7.008000      0.0000000E+00
   7.020000      0.0000000E+00
   7.032000      0.0000000E+00
   7.044000      0.0000000E+00
   7.056000      0.0000000E+00
   7.068000      0.0000000E+00
   7.080000      0.0000000E+00
   7.092000      0.0000000E+00
   7.104000      0.0000000E+00
   7.116000      0.0000000E+00
   7.128000      0.0000000E+00
   7.140000      0.0000000E+00
   7.152000      0.0000000E+00
   7.164000      0.0000000E+00
   7.176000      0.0000000E+00
   7.188000      0.0000000E+00
   7.200000      0.0000000E+00
   7.212000      0.0000000E+00
   7.224000      0.0000000E+00
   7.236000      0.0000000E+00
   7.248000      0.0000000E+00
   7.260000      0.0000000E+00
   7.272000      0.0000000E+00
   7.284000      0.0000000E+00
   7.296000      0.0000000E+00
   7.308000      0.0000000E+00
   7.320000      0.0000000E+00
   7.332000      0.0000000E+00
   7.344000      0.0000000E+00
   7.356000      0.0000000E+00
   7.368000      0.0000000E+00
   7.380000      0.0000000E+00
   7.392000      0.0000000E+00
   7.404000      0.0000000E+00
   7.416000      0.0000000E+00
   7.428000      0.0000000E+00
   7.440000      0.0000000E+00
   7.452000      0.0000000E+00
   7.464000      0.0000000E+00
   7.476000      0.0000000E+00
   7.488000      0.0000000E+00
   7.500000      0.0000000E+00
   7.512000      0.0000000E+00
   7.524000      0.0000000E+00
   7.536000      0.0000000E+00
   7.548000      0.0000000E+00
   7.560000      0.0000000E+00
   7.572000      0.0000000E+00
   7.584000      0.0000000E+00
   7.596000     -2.0449551E-38
   7.608000     -3.6028709E-38
   7.620000     -5.1904751E-38
   7.632000     -6.0387074E-38
   7.644000     -5.6110743E-38
   7.656000     -3.5730619E-38
   7.668000      0.0000000E+00
   7.680000      4.3440634E-38
   7.692000      8.8887304E-38
   7.704000      1.2577965E-37
   7.716000      9.4550361E-38
   7.728000      0.0000000E+00
   7.740000     -1.3260344E-37
   7.752000     -2.7418034E-37
   7.764000     -4.2570223E-37
   7.776000     -5.0032247E-37
   7.788000     -4.7218104E-37
   7.800000     -3.2411863E-37
   7.812000     -7.7427727E-38
   7.824000      1.8298998E-37
   7.836000      4.5592499E-37
   7.848000      6.6101854E-37
   7.860000      7.5274032E-37
   7.872000      7.1389942E-37
   7.884000      5.8095260E-37
   7.896000      3.6639428E-37
   7.908000      1.5663103E-37
   7.920000     -6.0274040E-38
   7.932000     -2.8486232E-37
   7.944000     -4.4972981E-37
   7.956000     -5.4255371E-37
   7.968000     -5.3894226E-37
   7.980000     -4.4539462E-37
   7.992000     -2.7853841E-37
   8.004000     -1.0502608E-37
   8.016000      7.2010884E-38
   8.028000      2.0256052E-37
   8.040000      2.6378477E-37
   8.052000      2.3392812E-37
   8.064000      1.3262215E-37
   8.076000      0.0000000E+00
   8.088000     -1.1960936E-37
   8.100000     -1.8604591E-37
   8.112000     -1.7092742E-37
   8.124000     -1.1921468E-37
   8.136000     -5.3298426E-38
   8.148000     -3.2107795E-38
   8.160000     -9.5664640E-38
   8.172000     -1.9540661E-37
   8.184000     -3.5329718E-37
   8.196000     -5.2011154E-37
   8.208000     -6.3819675E-37
   8.220000     -6.8599479E-37
   8.232000     -6.3702544E-37
   8.244000     -4.5166432E-37
   8.256000     -1.8336086E-37
   8.268000      1.0792954E-37
   8.280000      3.7611732E-37
   8.292000      5.7463174E-37
   8.304000      6.3118590E-37
   8.316000      5.3618836E-37
   8.328000      2.8300929E-37
   8.340000     -6.3333623E-38
   8.352000     -3.9484116E-37
   8.364000     -6.3135464E-37
   8.376000     -5.4372277E-37
   8.388000     -1.4057918E-37
   8.400000      4.0000910E-37
   8.412000      9.2802352E-37
   8.424000      1.3029650E-36
   8.436000      1.2904482E-36
   8.448000      8.7178647E-37
   8.460000      1.2593960E-37
   8.472000     -7.9552839E-37
   8.484000     -1.5410818E-36
   8.496000     -1.8653465E-36
   8.508000     -1.6359521E-36
   8.520000     -9.1771920E-37
   8.532000      2.1453897E-37
   8.544000      1.4777946E-36
   8.556000      2.5799941E-36
   8.568000      3.1232090E-36
   8.580000      3.0928032E-36
   8.592000      2.3927642E-36
   8.604000      1.1351421E-36
   8.616000     -4.6895271E-37
   8.628000     -1.9641466E-36
   8.640000     -2.9599904E-36
   8.652000     -3.1875118E-36
   8.664000     -2.4831463E-36
   8.676000     -1.3615391E-36
   8.688000      3.2146482E-38
   8.700000      1.3045483E-36
   8.712000      2.2140849E-36
   8.724000      2.7012062E-36
   8.736000      2.6821480E-36
   8.748000      2.1830010E-36
   8.760000      1.3996470E-36
   8.772000      3.2763098E-37
   8.784000     -1.1947262E-36
   8.796000     -3.4989349E-36
   8.808000     -6.8343948E-36
   8.820000     -1.1468624E-35
   8.832000     -1.7113691E-35
   8.844000     -2.3893655E-35
   8.856000     -3.1270282E-35
   8.868000     -3.8239219E-35
   8.880000     -4.3427293E-35
   8.892000     -4.5255095E-35
   8.904000     -4.2629041E-35
   8.916000     -3.4538750E-35
   8.928000     -2.0267484E-35
   8.940000      1.0196278E-37
   8.952000      2.5850541E-35
   8.964000      5.5768620E-35
   8.976000      8.7934772E-35
   8.988000      1.1953433E-34
   9.000000      1.4770453E-34
   9.012000      1.6940944E-34
   9.024000      1.8163844E-34
   9.036000      1.8166986E-34
   9.048000      1.6745930E-34
   9.060000      1.3760873E-34
   9.072000      9.1728841E-35
   9.084000      3.0495836E-35
   9.096000     -4.4377360E-35
   9.108000     -1.2989035E-34
   9.120000     -2.2210640E-34
   9.132000     -3.1572245E-34
   9.144000     -4.0457669E-34
   9.156000     -4.8150099E-34
   9.168000     -5.3878825E-34
   9.180000     -5.6837700E-34
   9.192000     -5.6243084E-34
   9.204000     -5.1387856E-34
   9.216000     -4.1746456E-34
   9.228000     -2.7055290E-34
   9.240000     -7.4022211E-35
   9.252000      1.6685921E-34
   9.264000      4.4206247E-34
   9.276000      7.3686433E-34
   9.288000      1.0320929E-33
   9.300000      1.3052090E-33
   9.312000      1.5314924E-33
   9.324000      1.6856192E-33
   9.336000      1.7433272E-33
   9.348000      1.6832330E-33
   9.360000      1.4885422E-33
   9.372000      1.1488834E-33
   9.384000      6.6193616E-34
   9.396000      3.5160434E-35
   9.408000     -7.1280444E-34
   9.420000     -1.5509908E-33
   9.432000     -2.4357470E-33
   9.444000     -3.3110880E-33
   9.456000     -4.1103048E-33
   9.468000     -4.7588203E-33
   9.480000     -5.1784504E-33
   9.492000     -5.2928360E-33
   9.504000     -5.0338268E-33
   9.516000     -4.3483788E-33
   9.528000     -3.2055257E-33
   9.540000     -1.6028093E-33
   9.552000      4.2832525E-34
   9.564000      2.8186597E-33
   9.576000      5.4593789E-33
   9.588000      8.2027370E-33
   9.600000      1.0865487E-32
   9.612000      1.3235461E-32
   9.624000      1.5081368E-32
   9.636000      1.6165916E-32
   9.648000      1.6261792E-32
   9.660000      1.5170165E-32
   9.672000      1.2740794E-32
   9.684000      8.8924627E-33
   9.696000      3.6324480E-33
   9.708000     -2.9267600E-33
   9.720000     -1.0555259E-32
   9.732000     -1.8899869E-32
   9.744000     -2.7486235E-32
   9.756000     -3.5730285E-32
   9.768000     -4.2959907E-32
   9.780000     -4.8447197E-32
   9.792000     -5.1450829E-32
   9.804000     -5.1267388E-32
   9.816000     -4.7289579E-32
   9.828000     -3.9068469E-32
   9.840000     -2.6376001E-32
   9.852000     -9.2634524E-33
   9.864000      1.1889003E-32
   9.876000      3.6336964E-32
   9.888000      6.2955698E-32
   9.900000      9.0248109E-32
   9.912000      1.1638078E-31
   9.924000      1.3925077E-31
   9.936000      1.5658422E-31
   9.948000      1.6606588E-31
   9.960000      1.6549590E-31
   9.972000      1.5296808E-31
   9.984000      1.2706072E-31
   9.996000      8.7029111E-32
   10.00800      3.2985994E-32
   10.02000     -3.3944551E-32
   10.03200     -1.1151582E-31
   10.04400     -1.9630535E-31
   10.05600     -2.8373417E-31
   10.06800     -3.6817078E-31
   10.08000     -4.4312752E-31
   10.09200     -5.0155306E-31
   10.10400     -5.3621825E-31
   10.11600     -5.4018470E-31
   10.12800     -5.0734054E-31
   10.14000     -4.3297618E-31
   10.15200     -3.1436995E-31
   10.16400     -1.5134296E-31
   10.17600      5.3259180E-32
   10.18800      2.9320480E-31
   10.20000      5.5868101E-31
   10.21200      8.3630856E-31
   10.22400      1.1094032E-30
   10.23600      1.3585091E-30
   10.24800      1.5622196E-30
   10.26000      1.6982752E-30
   10.27200      1.7449204E-30
   10.28400      1.6824664E-30
   10.29600      1.4949961E-30
   10.30800      1.1721161E-30
   10.32000      7.1064986E-31
   10.33200      1.1614426E-31
   10.34400     -5.9594277E-31
   10.35600     -1.3995097E-30
   10.36800     -2.2576635E-30
   10.38000     -3.1232663E-30
   10.39200     -3.9402601E-30
   10.40400     -4.6458181E-30
   10.41600     -5.1733247E-30
   10.42800     -5.4561182E-30
   10.44000     -5.4318909E-30
   10.45200     -5.0475633E-30
   10.46400     -4.2643828E-30
   10.47600     -3.0629642E-30
   10.48800     -1.4479122E-30
   10.50000      5.4833797E-31
   10.51200      2.8628529E-30
   10.52400      5.4010798E-30
   10.53600      8.0376000E-30
   10.54800      1.0619035E-29
   10.56000      1.2969257E-29
   10.57200      1.4896967E-29
   10.58400      1.6205516E-29
   10.59600      1.6704738E-29
   10.60800      1.6224305E-29
   10.62000      1.4628046E-29
   10.63200      1.1828405E-29
   10.64400      7.8001675E-30
   10.65600      2.5924106E-30
   10.66800     -3.6623540E-30
   10.68000     -1.0742909E-29
   10.69200     -1.8338899E-29
   10.70400     -2.6056039E-29
   10.71600     -3.3427554E-29
   10.72800     -3.9932090E-29
   10.74000     -4.5017993E-29
   10.75200     -4.8133437E-29
   10.76400     -4.8761380E-29
   10.77600     -4.6457854E-29
   10.78800     -4.0891736E-29
   10.80000     -3.1883647E-29
   10.81200     -1.9441328E-29
   10.82400     -3.7888098E-30
   10.83600      1.4613597E-29
   10.84800      3.5061088E-29
   10.86000      5.6610321E-29
   10.87200      7.8101352E-29
   10.88400      9.8196620E-29
   10.89600      1.1543711E-28
   10.90800      1.2831484E-28
   10.92000      1.3535951E-28
   10.93200      1.3523606E-28
   10.94400      1.2684851E-28
   10.95600      1.0944474E-28
   10.96800      8.2715339E-29
   10.98000      4.6879873E-29
   10.99200      2.7528142E-30
   11.00400     -4.8217739E-29
   11.01600     -1.0394524E-28
   11.02800     -1.6173904E-28
   11.04000     -2.1838153E-28
   11.05200     -2.7024967E-28
   11.06400     -3.1347950E-28
   11.07600     -3.4417045E-28
   11.08800     -3.5862113E-28
   11.10000     -3.5358757E-28
   11.11200     -3.2655055E-28
   11.12400     -2.7597649E-28
   11.13600     -2.0155456E-28
   11.14800     -1.0439195E-28
   11.16000      1.2851329E-29
   11.17200      1.4590489E-28
   11.18400      2.8892279E-28
   11.19600      4.3462134E-28
   11.20800      5.7452647E-28
   11.22000      6.9933034E-28
   11.23200      7.9935063E-28
   11.24400      8.6507795E-28
   11.25600      8.8779044E-28
   11.26800      8.6020399E-28
   11.28000      7.7712626E-28
   11.29200      6.3606928E-28
   11.30400      4.3777986E-28
   11.31600      1.8664105E-28
   11.32800     -1.0909896E-28
   11.34000     -4.3730801E-28
   11.35200     -7.8219305E-28
   11.36400     -1.1247841E-27
   11.37600     -1.4436862E-27
   11.38800     -1.7160879E-27
   11.40000     -1.9189997E-27
   11.41200     -2.0306749E-27
   11.42400     -2.0321506E-27
   11.43600     -1.9088244E-27
   11.44800     -1.6519755E-27
   11.46000     -1.2601209E-27
   11.47200     -7.4010377E-28