 -0.1200000      0.0000000E+00
 -0.1080000      0.0000000E+00
 -9.6000001E-02  0.0000000E+00
 -8.3999999E-02  0.0000000E+00
 -7.1999997E-02  0.0000000E+00
 -5.9999999E-02  0.0000000E+00
 -4.8000000E-02  0.0000000E+00
 -3.5999998E-02  0.0000000E+00
 -2.4000000E-02  0.0000000E+00
 -1.2000000E-02  0.0000000E+00
  6.9388939E-18  0.0000000E+00
  1.2000000E-02  0.0000000E+00
  2.4000000E-02  0.0000000E+00
  3.5999998E-02  0.0000000E+00
  4.8000000E-02  0.0000000E+00
  5.9999999E-02  0.0000000E+00
  7.1999997E-02  0.0000000E+00
  8.3999999E-02  0.0000000E+00
  9.6000001E-02  0.0000000E+00
  0.1080000      0.0000000E+00
  0.1200000      0.0000000E+00
  0.1320000      0.0000000E+00
  0.1440000      0.0000000E+00
  0.1560000      0.0000000E+00
  0.1680000      0.0000000E+00
  0.1800000      0.0000000E+00
  0.1920000      0.0000000E+00
  0.2040000      0.0000000E+00
  0.2160000      0.0000000E+00
  0.2280000      0.0000000E+00
  0.2400000      0.0000000E+00
  0.2520000      0.0000000E+00
  0.2640000      0.0000000E+00
  0.2760000      0.0000000E+00
  0.2880000      0.0000000E+00
  0.3000000      0.0000000E+00
  0.3120000      0.0000000E+00
  0.3240000      0.0000000E+00
  0.3360000      0.0000000E+00
  0.3480000      0.0000000E+00
  0.3600000      0.0000000E+00
  0.3720000      0.0000000E+00
  0.3840000      0.0000000E+00
  0.3960000      0.0000000E+00
  0.4080000      0.0000000E+00
  0.4200000      0.0000000E+00
  0.4320000      0.0000000E+00
  0.4440000      0.0000000E+00
  0.4560000      0.0000000E+00
  0.4680000      0.0000000E+00
  0.4800000      0.0000000E+00
  0.4920000      0.0000000E+00
  0.5040000      0.0000000E+00
  0.5160000      0.0000000E+00
  0.5280000      0.0000000E+00
  0.5400000      0.0000000E+00
  0.5520000      0.0000000E+00
  0.5640000      0.0000000E+00
  0.5760000      0.0000000E+00
  0.5880000      0.0000000E+00
  0.6000000      0.0000000E+00
  0.6120000      0.0000000E+00
  0.6240000      0.0000000E+00
  0.6360000      0.0000000E+00
  0.6480000      0.0000000E+00
  0.6600000      0.0000000E+00
  0.6720000      0.0000000E+00
  0.6840000      0.0000000E+00
  0.6960000      0.0000000E+00
  0.7080000      0.0000000E+00
  0.7200000      0.0000000E+00
  0.7320000      0.0000000E+00
  0.7440000      0.0000000E+00
  0.7560000      0.0000000E+00
  0.7680000      0.0000000E+00
  0.7800000      0.0000000E+00
  0.7920000      0.0000000E+00
  0.8040000      0.0000000E+00
  0.8160000      0.0000000E+00
  0.8280000      0.0000000E+00
  0.8400000      0.0000000E+00
  0.8520000      0.0000000E+00
  0.8640000      0.0000000E+00
  0.8760000      0.0000000E+00
  0.8880000      0.0000000E+00
  0.9000000      0.0000000E+00
  0.9120000      0.0000000E+00
  0.9240000      0.0000000E+00
  0.9360000      0.0000000E+00
  0.9480000      0.0000000E+00
  0.9600000      0.0000000E+00
  0.9720000      0.0000000E+00
  0.9840000      0.0000000E+00
  0.9960000      0.0000000E+00
   1.008000      0.0000000E+00
   1.020000      0.0000000E+00
   1.032000      0.0000000E+00
   1.044000      0.0000000E+00
   1.056000      0.0000000E+00
   1.068000      0.0000000E+00
   1.080000      0.0000000E+00
   1.092000      0.0000000E+00
   1.104000      0.0000000E+00
   1.116000      0.0000000E+00
   1.128000      0.0000000E+00
   1.140000      0.0000000E+00
   1.152000      0.0000000E+00
   1.164000      0.0000000E+00
   1.176000      0.0000000E+00
   1.188000      0.0000000E+00
   1.200000      0.0000000E+00
   1.212000      0.0000000E+00
   1.224000      0.0000000E+00
   1.236000      0.0000000E+00
   1.248000      0.0000000E+00
   1.260000      0.0000000E+00
   1.272000      0.0000000E+00
   1.284000      0.0000000E+00
   1.296000      0.0000000E+00
   1.308000      0.0000000E+00
   1.320000      0.0000000E+00
   1.332000      0.0000000E+00
   1.344000      0.0000000E+00
   1.356000      0.0000000E+00
   1.368000      0.0000000E+00
   1.380000      0.0000000E+00
   1.392000      0.0000000E+00
   1.404000      0.0000000E+00
   1.416000      0.0000000E+00
   1.428000      0.0000000E+00
   1.440000      0.0000000E+00
   1.452000      0.0000000E+00
   1.464000      0.0000000E+00
   1.476000      0.0000000E+00
   1.488000      0.0000000E+00
   1.500000      0.0000000E+00
   1.512000      0.0000000E+00
   1.524000      0.0000000E+00
   1.536000      0.0000000E+00
   1.548000      0.0000000E+00
   1.560000      0.0000000E+00
   1.572000      0.0000000E+00
   1.584000      0.0000000E+00
   1.596000      0.0000000E+00
   1.608000      0.0000000E+00
   1.620000      0.0000000E+00
   1.632000      0.0000000E+00
   1.644000      0.0000000E+00
   1.656000      0.0000000E+00
   1.668000      0.0000000E+00
   1.680000      0.0000000E+00
   1.692000      0.0000000E+00
   1.704000      0.0000000E+00
   1.716000      0.0000000E+00
   1.728000      0.0000000E+00
   1.740000      0.0000000E+00
   1.752000      0.0000000E+00
   1.764000      0.0000000E+00
   1.776000      0.0000000E+00
   1.788000      0.0000000E+00
   1.800000      0.0000000E+00
   1.812000      0.0000000E+00
   1.824000      0.0000000E+00
   1.836000      0.0000000E+00
   1.848000      0.0000000E+00
   1.860000      0.0000000E+00
   1.872000      0.0000000E+00
   1.884000      0.0000000E+00
   1.896000      0.0000000E+00
   1.908000      0.0000000E+00
   1.920000      0.0000000E+00
   1.932000      0.0000000E+00
   1.944000      0.0000000E+00
   1.956000      0.0000000E+00
   1.968000      0.0000000E+00
   1.980000      0.0000000E+00
   1.992000      0.0000000E+00
   2.004000      0.0000000E+00
   2.016000      0.0000000E+00
   2.028000      0.0000000E+00
   2.040000      0.0000000E+00
   2.052000      0.0000000E+00
   2.064000      0.0000000E+00
   2.076000      0.0000000E+00
   2.088000      0.0000000E+00
   2.100000      0.0000000E+00
   2.112000      0.0000000E+00
   2.124000      0.0000000E+00
   2.136000      0.0000000E+00
   2.148000      0.0000000E+00
   2.160000      0.0000000E+00
   2.172000      0.0000000E+00
   2.184000      0.0000000E+00
   2.196000      0.0000000E+00
   2.208000      0.0000000E+00
   2.220000      0.0000000E+00
   2.232000      0.0000000E+00
   2.244000      0.0000000E+00
   2.256000      0.0000000E+00
   2.268000      0.0000000E+00
   2.280000      0.0000000E+00
   2.292000      0.0000000E+00
   2.304000      0.0000000E+00
   2.316000      0.0000000E+00
   2.328000      0.0000000E+00
   2.340000      0.0000000E+00
   2.352000      0.0000000E+00
   2.364000      0.0000000E+00
   2.376000      0.0000000E+00
   2.388000      0.0000000E+00
   2.400000      0.0000000E+00
   2.412000      0.0000000E+00
   2.424000      0.0000000E+00
   2.436000      0.0000000E+00
   2.448000      0.0000000E+00
   2.460000      0.0000000E+00
   2.472000      0.0000000E+00
   2.484000      0.0000000E+00
   2.496000      0.0000000E+00
   2.508000      0.0000000E+00
   2.520000      0.0000000E+00
   2.532000      0.0000000E+00
   2.544000      0.0000000E+00
   2.556000      0.0000000E+00
   2.568000      0.0000000E+00
   2.580000      0.0000000E+00
   2.592000      0.0000000E+00
   2.604000      0.0000000E+00
   2.616000      0.0000000E+00
   2.628000      0.0000000E+00
   2.640000      0.0000000E+00
   2.652000      0.0000000E+00
   2.664000      0.0000000E+00
   2.676000      0.0000000E+00
   2.688000      0.0000000E+00
   2.700000      0.0000000E+00
   2.712000      0.0000000E+00
   2.724000      0.0000000E+00
   2.736000      0.0000000E+00
   2.748000      0.0000000E+00
   2.760000      0.0000000E+00
   2.772000      0.0000000E+00
   2.784000      0.0000000E+00
   2.796000      0.0000000E+00
   2.808000      0.0000000E+00
   2.820000      0.0000000E+00
   2.832000      0.0000000E+00
   2.844000      0.0000000E+00
   2.856000      0.0000000E+00
   2.868000      0.0000000E+00
   2.880000      0.0000000E+00
   2.892000      0.0000000E+00
   2.904000      0.0000000E+00
   2.916000      0.0000000E+00
   2.928000      0.0000000E+00
   2.940000      0.0000000E+00
   2.952000      0.0000000E+00
   2.964000      0.0000000E+00
   2.976000      0.0000000E+00
   2.988000      0.0000000E+00
   3.000000      0.0000000E+00
   3.012000      0.0000000E+00
   3.024000      0.0000000E+00
   3.036000      0.0000000E+00
   3.048000      0.0000000E+00
   3.060000      0.0000000E+00
   3.072000      0.0000000E+00
   3.084000      0.0000000E+00
   3.096000      0.0000000E+00
   3.108000      0.0000000E+00
   3.120000      0.0000000E+00
   3.132000      0.0000000E+00
   3.144000      0.0000000E+00
   3.156000      0.0000000E+00
   3.168000      0.0000000E+00
   3.180000      0.0000000E+00
   3.192000      0.0000000E+00
   3.204000      0.0000000E+00
   3.216000      0.0000000E+00
   3.228000      0.0000000E+00
   3.240000      0.0000000E+00
   3.252000      0.0000000E+00
   3.264000      0.0000000E+00
   3.276000      0.0000000E+00
   3.288000      0.0000000E+00
   3.300000      0.0000000E+00
   3.312000      0.0000000E+00
   3.324000      0.0000000E+00
   3.336000      0.0000000E+00
   3.348000      0.0000000E+00
   3.360000      0.0000000E+00
   3.372000      0.0000000E+00
   3.384000      0.0000000E+00
   3.396000      0.0000000E+00
   3.408000      0.0000000E+00
   3.420000      0.0000000E+00
   3.432000      0.0000000E+00
   3.444000      0.0000000E+00
   3.456000      0.0000000E+00
   3.468000      0.0000000E+00
   3.480000      0.0000000E+00
   3.492000      0.0000000E+00
   3.504000      0.0000000E+00
   3.516000      0.0000000E+00
   3.528000      0.0000000E+00
   3.540000      0.0000000E+00
   3.552000      0.0000000E+00
   3.564000      0.0000000E+00
   3.576000      0.0000000E+00
   3.588000      0.0000000E+00
   3.600000      0.0000000E+00
   3.612000      0.0000000E+00
   3.624000      0.0000000E+00
   3.636000      0.0000000E+00
   3.648000      0.0000000E+00
   3.660000      0.0000000E+00
   3.672000      0.0000000E+00
   3.684000      0.0000000E+00
   3.696000      0.0000000E+00
   3.708000      0.0000000E+00
   3.720000      0.0000000E+00
   3.732000      0.0000000E+00
   3.744000      0.0000000E+00
   3.756000      0.0000000E+00
   3.768000      0.0000000E+00
   3.780000      0.0000000E+00
   3.792000      0.0000000E+00
   3.804000      0.0000000E+00
   3.816000      0.0000000E+00
   3.828000      0.0000000E+00
   3.840000      0.0000000E+00
   3.852000      0.0000000E+00
   3.864000      0.0000000E+00
   3.876000      0.0000000E+00
   3.888000      0.0000000E+00
   3.900000      0.0000000E+00
   3.912000      0.0000000E+00
   3.924000      0.0000000E+00
   3.936000      0.0000000E+00
   3.948000      0.0000000E+00
   3.960000      0.0000000E+00
   3.972000      0.0000000E+00
   3.984000      0.0000000E+00
   3.996000      0.0000000E+00
   4.008000      0.0000000E+00
   4.020000      0.0000000E+00
   4.032000      0.0000000E+00
   4.044000      0.0000000E+00
   4.056000      0.0000000E+00
   4.068000      0.0000000E+00
   4.080000      0.0000000E+00
   4.092000      0.0000000E+00
   4.104000      0.0000000E+00
   4.116000      0.0000000E+00
   4.128000      0.0000000E+00
   4.140000      0.0000000E+00
   4.152000      0.0000000E+00
   4.164000      0.0000000E+00
   4.176000      0.0000000E+00
   4.188000      0.0000000E+00
   4.200000      0.0000000E+00
   4.212000      0.0000000E+00
   4.224000      0.0000000E+00
   4.236000      0.0000000E+00
   4.248000      0.0000000E+00
   4.260000      0.0000000E+00
   4.272000      0.0000000E+00
   4.284000      0.0000000E+00
   4.296000      0.0000000E+00
   4.308000      0.0000000E+00
   4.320000      0.0000000E+00
   4.332000      0.0000000E+00
   4.344000      0.0000000E+00
   4.356000      0.0000000E+00
   4.368000      0.0000000E+00
   4.380000      0.0000000E+00
   4.392000      0.0000000E+00
   4.404000      0.0000000E+00
   4.416000      0.0000000E+00
   4.428000      0.0000000E+00
   4.440000      0.0000000E+00
   4.452000      0.0000000E+00
   4.464000      0.0000000E+00
   4.476000      0.0000000E+00
   4.488000      0.0000000E+00
   4.500000      0.0000000E+00
   4.512000      0.0000000E+00
   4.524000      0.0000000E+00
   4.536000      0.0000000E+00
   4.548000      0.0000000E+00
   4.560000      0.0000000E+00
   4.572000      0.0000000E+00
   4.584000      0.0000000E+00
   4.596000      0.0000000E+00
   4.608000      0.0000000E+00
   4.620000      0.0000000E+00
   4.632000      0.0000000E+00
   4.644000      0.0000000E+00
   4.656000      0.0000000E+00
   4.668000      0.0000000E+00
   4.680000      0.0000000E+00
   4.692000      0.0000000E+00
   4.704000      0.0000000E+00
   4.716000      0.0000000E+00
   4.728000      0.0000000E+00
   4.740000      0.0000000E+00
   4.752000      0.0000000E+00
   4.764000      0.0000000E+00
   4.776000      0.0000000E+00
   4.788000      0.0000000E+00
   4.800000      0.0000000E+00
   4.812000      0.0000000E+00
   4.824000      0.0000000E+00
   4.836000      0.0000000E+00
   4.848000      0.0000000E+00
   4.860000      0.0000000E+00
   4.872000      0.0000000E+00
   4.884000      0.0000000E+00
   4.896000      0.0000000E+00
   4.908000      0.0000000E+00
   4.920000      0.0000000E+00
   4.932000      0.0000000E+00
   4.944000      0.0000000E+00
   4.956000      0.0000000E+00
   4.968000      0.0000000E+00
   4.980000      0.0000000E+00
   4.992000      0.0000000E+00
   5.004000      0.0000000E+00
   5.016000      0.0000000E+00
   5.028000      0.0000000E+00
   5.040000      0.0000000E+00
   5.052000      0.0000000E+00
   5.064000      0.0000000E+00
   5.076000      0.0000000E+00
   5.088000      0.0000000E+00
   5.100000      0.0000000E+00
   5.112000      0.0000000E+00
   5.124000      0.0000000E+00
   5.136000      0.0000000E+00
   5.148000      0.0000000E+00
   5.160000      0.0000000E+00
   5.172000      0.0000000E+00
   5.184000      0.0000000E+00
   5.196000      0.0000000E+00
   5.208000      0.0000000E+00
   5.220000      0.0000000E+00
   5.232000      0.0000000E+00
   5.244000      0.0000000E+00
   5.256000      0.0000000E+00
   5.268000      0.0000000E+00
   5.280000      0.0000000E+00
   5.292000      0.0000000E+00
   5.304000      0.0000000E+00
   5.316000      0.0000000E+00
   5.328000      0.0000000E+00
   5.340000      0.0000000E+00
   5.352000      0.0000000E+00
   5.364000      0.0000000E+00
   5.376000      0.0000000E+00
   5.388000      0.0000000E+00
   5.400000      0.0000000E+00
   5.412000      0.0000000E+00
   5.424000      0.0000000E+00
   5.436000      0.0000000E+00
   5.448000      0.0000000E+00
   5.460000      0.0000000E+00
   5.472000      0.0000000E+00
   5.484000      0.0000000E+00
   5.496000      0.0000000E+00
   5.508000      0.0000000E+00
   5.520000      0.0000000E+00
   5.532000      0.0000000E+00
   5.544000      0.0000000E+00
   5.556000      0.0000000E+00
   5.568000      0.0000000E+00
   5.580000      0.0000000E+00
   5.592000      0.0000000E+00
   5.604000      0.0000000E+00
   5.616000      0.0000000E+00
   5.628000      0.0000000E+00
   5.640000      0.0000000E+00
   5.652000      0.0000000E+00
   5.664000      0.0000000E+00
   5.676000      0.0000000E+00
   5.688000      0.0000000E+00
   5.700000      0.0000000E+00
   5.712000      0.0000000E+00
   5.724000      0.0000000E+00
   5.736000      0.0000000E+00
   5.748000      0.0000000E+00
   5.760000      0.0000000E+00
   5.772000      0.0000000E+00
   5.784000      0.0000000E+00
   5.796000      0.0000000E+00
   5.808000      0.0000000E+00
   5.820000      0.0000000E+00
   5.832000      0.0000000E+00
   5.844000      0.0000000E+00
   5.856000      0.0000000E+00
   5.868000      0.0000000E+00
   5.880000      0.0000000E+00
   5.892000      0.0000000E+00
   5.904000      0.0000000E+00
   5.916000      0.0000000E+00
   5.928000      0.0000000E+00
   5.940000      0.0000000E+00
   5.952000      0.0000000E+00
   5.964000      0.0000000E+00
   5.976000      0.0000000E+00
   5.988000      0.0000000E+00
   6.000000      0.0000000E+00
   6.012000      0.0000000E+00
   6.024000      0.0000000E+00
   6.036000      0.0000000E+00
   6.048000      0.0000000E+00
   6.060000      0.0000000E+00
   6.072000      0.0000000E+00
   6.084000      0.0000000E+00
   6.096000      0.0000000E+00
   6.108000      0.0000000E+00
   6.120000      0.0000000E+00
   6.132000      0.0000000E+00
   6.144000      0.0000000E+00
   6.156000      0.0000000E+00
   6.168000      0.0000000E+00
   6.180000      0.0000000E+00
   6.192000      0.0000000E+00
   6.204000      0.0000000E+00
   6.216000      0.0000000E+00
   6.228000      0.0000000E+00
   6.240000      0.0000000E+00
   6.252000      0.0000000E+00
   6.264000      0.0000000E+00
   6.276000      0.0000000E+00
   6.288000      0.0000000E+00
   6.300000      0.0000000E+00
   6.312000      0.0000000E+00
   6.324000      0.0000000E+00
   6.336000      0.0000000E+00
   6.348000      0.0000000E+00
   6.360000      0.0000000E+00
   6.372000      0.0000000E+00
   6.384000      0.0000000E+00
   6.396000      0.0000000E+00
   6.408000      0.0000000E+00
   6.420000      0.0000000E+00
   6.432000      0.0000000E+00
   6.444000      0.0000000E+00
   6.456000      0.0000000E+00
   6.468000      0.0000000E+00
   6.480000      0.0000000E+00
   6.492000      0.0000000E+00
   6.504000      0.0000000E+00
   6.516000      0.0000000E+00
   6.528000      0.0000000E+00
   6.540000      0.0000000E+00
   6.552000      0.0000000E+00
   6.564000      0.0000000E+00
   6.576000      0.0000000E+00
   6.588000      0.0000000E+00
   6.600000      0.0000000E+00
   6.612000      0.0000000E+00
   6.624000      0.0000000E+00
   6.636000      0.0000000E+00
   6.648000      0.0000000E+00
   6.660000      0.0000000E+00
   6.672000      0.0000000E+00
   6.684000      0.0000000E+00
   6.696000      0.0000000E+00
   6.708000      0.0000000E+00
   6.720000      0.0000000E+00
   6.732000      0.0000000E+00
   6.744000      0.0000000E+00
   6.756000      0.0000000E+00
   6.768000      0.0000000E+00
   6.780000      0.0000000E+00
   6.792000      0.0000000E+00
   6.804000      0.0000000E+00
   6.816000      0.0000000E+00
   6.828000      0.0000000E+00
   6.840000      0.0000000E+00
   6.852000      0.0000000E+00
   6.864000      0.0000000E+00
   6.876000      0.0000000E+00
   6.888000      0.0000000E+00
   6.900000      0.0000000E+00
   6.912000      0.0000000E+00
   6.924000      0.0000000E+00
   6.936000      0.0000000E+00
   6.948000      0.0000000E+00
   6.960000      0.0000000E+00
   6.972000      0.0000000E+00
   6.984000      0.0000000E+00
   6.996000      0.0000000E+00
   7.008000      0.0000000E+00
   7.020000      0.0000000E+00
   7.032000      0.0000000E+00
   7.044000      0.0000000E+00
   7.056000      0.0000000E+00
   7.068000      0.0000000E+00
   7.080000      0.0000000E+00
   7.092000      0.0000000E+00
   7.104000      0.0000000E+00
   7.116000      0.0000000E+00
   7.128000      0.0000000E+00
   7.140000      0.0000000E+00
   7.152000      0.0000000E+00
   7.164000      0.0000000E+00
   7.176000      0.0000000E+00
   7.188000      0.0000000E+00
   7.200000      0.0000000E+00
   7.212000      0.0000000E+00
   7.224000      0.0000000E+00
   7.236000      0.0000000E+00
   7.248000      0.0000000E+00
   7.260000      0.0000000E+00
   7.272000      0.0000000E+00
   7.284000      0.0000000E+00
   7.296000      0.0000000E+00
   7.308000      0.0000000E+00
   7.320000      0.0000000E+00
   7.332000      0.0000000E+00
   7.344000      0.0000000E+00
   7.356000      0.0000000E+00
   7.368000      0.0000000E+00
   7.380000      0.0000000E+00
   7.392000      0.0000000E+00
   7.404000      0.0000000E+00
   7.416000      0.0000000E+00
   7.428000      0.0000000E+00
   7.440000      0.0000000E+00
   7.452000      0.0000000E+00
   7.464000      0.0000000E+00
   7.476000      0.0000000E+00
   7.488000      0.0000000E+00
   7.500000      0.0000000E+00
   7.512000      0.0000000E+00
   7.524000      0.0000000E+00
   7.536000      0.0000000E+00
   7.548000      0.0000000E+00
   7.560000      0.0000000E+00
   7.572000      0.0000000E+00
   7.584000      0.0000000E+00
   7.596000      0.0000000E+00
   7.608000      0.0000000E+00
   7.620000      0.0000000E+00
   7.632000      0.0000000E+00
   7.644000      0.0000000E+00
   7.656000      0.0000000E+00
   7.668000      0.0000000E+00
   7.680000      0.0000000E+00
   7.692000      0.0000000E+00
   7.704000      0.0000000E+00
   7.716000      0.0000000E+00
   7.728000     -2.2604654E-38
   7.740000     -4.4253790E-38
   7.752000     -6.5829863E-38
   7.764000     -8.7358252E-38
   7.776000     -9.2485727E-38
   7.788000     -7.5688362E-38
   7.800000     -3.6103320E-38
   7.812000      2.5970503E-38
   7.824000      8.8219580E-38
   7.836000      1.5051422E-37
   7.848000      1.9636299E-37
   7.860000      2.1635196E-37
   7.872000      2.0972050E-37
   7.884000      1.7584507E-37
   7.896000      1.2189153E-37
   7.908000      6.8422652E-38
   7.920000      1.8932789E-38
   7.932000     -3.5303285E-38
   7.944000     -7.2258858E-38
   7.956000     -9.2992711E-38
   7.968000     -9.5032351E-38
   7.980000     -7.9191087E-38
   7.992000     -5.0534074E-38
   8.004000     -2.2040703E-38
   8.016000      0.0000000E+00
   8.028000      2.4760210E-38
   8.040000      3.3729792E-38
   8.052000      2.9873890E-38
   8.064000      2.4863250E-38
   8.076000      2.1528415E-38
   8.088000      1.8842858E-38
   8.100000      2.4549819E-38
   8.112000      4.0594804E-38
   8.124000      4.5721678E-38
   8.136000      4.2588728E-38
   8.148000      2.4987730E-38
   8.160000     -1.4719716E-38
   8.172000     -5.6793982E-38
   8.184000     -1.0366915E-37
   8.196000     -1.4585694E-37
   8.208000     -1.7306414E-37
   8.220000     -1.7903447E-37
   8.232000     -1.5792841E-37
   8.244000     -1.0743743E-37
   8.256000     -5.4797412E-38
   8.268000     -1.4744046E-38
   8.280000      2.1359177E-38
   8.292000      4.8744565E-38
   8.304000      5.2636307E-38
   8.316000      3.7705461E-38
   8.328000      2.5344537E-38
   8.340000      0.0000000E+00
   8.352000     -1.2831572E-38
   8.364000     -1.6680136E-38
   8.376000      0.0000000E+00
   8.388000      6.1844862E-38
   8.400000      1.2216220E-37
   8.412000      1.8716699E-37
   8.424000      2.2816289E-37
   8.436000      2.2817294E-37
   8.448000      1.8146947E-37
   8.460000      1.1066847E-37
   8.472000      4.7197184E-38
   8.484000      0.0000000E+00
   8.496000     -2.8311139E-38
   8.508000      2.2823036E-38
   8.520000      1.2882481E-37
   8.532000      2.5315493E-37
   8.544000      3.2944305E-37
   8.556000      3.4735537E-37
   8.568000      2.6552323E-37
   8.580000      9.2367664E-38
   8.592000     -1.1639173E-37
   8.604000     -3.1624280E-37
   8.616000     -4.0594688E-37
   8.628000     -3.0581265E-37
   8.640000     -4.2298096E-38
   8.652000      2.9351842E-37
   8.664000      6.0138798E-37
   8.676000      8.1052242E-37
   8.688000      9.8439302E-37
   8.700000      9.7977264E-37
   8.712000      6.6754424E-37
   8.724000      7.9579628E-38
   8.736000     -6.8324775E-37
   8.748000     -1.6237359E-36
   8.760000     -2.6132865E-36
   8.772000     -3.6013727E-36
   8.784000     -4.5071161E-36
   8.796000     -5.2361135E-36
   8.808000     -5.5668461E-36
   8.820000     -5.2915796E-36
   8.832000     -4.0397900E-36
   8.844000     -1.6664596E-36
   8.856000      1.9303351E-36
   8.868000      6.9039917E-36
   8.880000      1.3088237E-35
   8.892000      2.0156287E-35
   8.904000      2.7286105E-35
   8.916000      3.3511355E-35
   8.928000      3.8047343E-35
   8.940000      3.9702043E-35
   8.952000      3.7748918E-35
   8.964000      3.1644213E-35
   8.976000      2.1106180E-35
   8.988000      6.2870760E-36
   9.000000     -1.2164383E-35
   9.012000     -3.3224616E-35
   9.024000     -5.5466286E-35
   9.036000     -7.7319737E-35
   9.048000     -9.6887562E-35
   9.060000     -1.1226862E-34
   9.072000     -1.2163537E-34
   9.084000     -1.2335199E-34
   9.096000     -1.1611157E-34
   9.108000     -9.8956570E-35
   9.120000     -7.1521743E-35
   9.132000     -3.4122096E-35
   9.144000      1.2126167E-35
   9.156000      6.5217144E-35
   9.168000      1.2216389E-34
   9.180000      1.7923125E-34
   9.192000      2.3213254E-34
   9.204000      2.7624237E-34
   9.216000      3.0701499E-34
   9.228000      3.2038390E-34
   9.240000      3.1315192E-34
   9.252000      2.8315494E-34
   9.264000      2.2953187E-34
   9.276000      1.5283899E-34
   9.288000      5.5103904E-35
   9.300000     -6.0084142E-35
   9.312000     -1.8764096E-34
   9.324000     -3.2105076E-34
   9.336000     -4.5256349E-34
   9.348000     -5.7335394E-34
   9.360000     -6.7392680E-34
   9.372000     -7.4465455E-34
   9.384000     -7.7639703E-34
   9.396000     -7.6124335E-34
   9.408000     -6.9328026E-34
   9.420000     -5.6929609E-34
   9.432000     -3.8947044E-34
   9.444000     -1.5787196E-34
   9.456000      1.1719078E-34
   9.468000      4.2310959E-34
   9.480000      7.4317912E-34
   9.492000      1.0571285E-33
   9.504000      1.3420044E-33
   9.516000      1.5734148E-33
   9.528000      1.7270903E-33
   9.540000      1.7808058E-33
   9.552000      1.7163645E-33
   9.564000      1.5216929E-33
   9.576000      1.1927943E-33
   9.588000      7.3536286E-34
   9.600000      1.6586688E-34
   9.612000     -4.8805460E-34
   9.624000     -1.1880751E-33
   9.636000     -1.8864660E-33
   9.648000     -2.5285495E-33
   9.660000     -3.0559613E-33
   9.672000     -3.4107817E-33
   9.684000     -3.5403197E-33
   9.696000     -3.4022803E-33
   9.708000     -2.9699789E-33
   9.720000     -2.2371854E-33
   9.732000     -1.2221226E-33
   9.744000      2.9857330E-35
   9.756000      1.4454175E-33
   9.768000      2.9245848E-33
   9.780000      4.3446176E-33
   9.792000      5.5665326E-33
   9.804000      6.4442349E-33
   9.816000      6.8359566E-33
   9.828000      6.6174932E-33
   9.840000      5.6964339E-33
   9.852000      4.0263999E-33
   9.864000      1.6200882E-33
   9.876000     -1.4401909E-33
   9.888000     -4.9958594E-33
   9.900000     -8.8105851E-33
   9.912000     -1.2575115E-32
   9.924000     -1.5919248E-32
   9.936000     -1.8431403E-32
   9.948000     -1.9685626E-32
   9.960000     -1.9275379E-32
   9.972000     -1.6852629E-32
   9.984000     -1.2170167E-32
   9.996000     -5.1243292E-33
   10.00800      4.2052704E-33
   10.02000      1.5522808E-32
   10.03200      2.8294246E-32
   10.04400      4.1740203E-32
   10.05600      5.4847362E-32
   10.06800      6.6401290E-32
   10.08000      7.5042396E-32
   10.09200      7.9345428E-32
   10.10400      7.7920829E-32
   10.11600      6.9534717E-32
   10.12800      5.3241660E-32
   10.14000      2.8522715E-32
   10.15200     -4.5810686E-33
   10.16400     -4.5350857E-32
   10.17600     -9.2300293E-32
   10.18800     -1.4312639E-31
   10.20000     -1.9471333E-31
   10.21200     -2.4319941E-31
   10.22400     -2.8411520E-31
   10.23600     -3.1259658E-31
   10.24800     -3.2367190E-31
   10.26000     -3.1261649E-31
   10.27200     -2.7536141E-31
   10.28400     -2.0893648E-31
   10.29600     -1.1192183E-31
   10.30800      1.5124348E-32
   10.32000      1.6929778E-31
   10.33200      3.4507897E-31
   10.34400      5.3420237E-31
   10.35600      7.2570004E-31
   10.36800      9.0615145E-31
   10.38000      1.0601614E-30
   10.39200      1.1710757E-30
   10.40400      1.2219295E-30
   10.41600      1.1966042E-30
   10.42800      1.0811521E-30
   10.44000      8.6522318E-31
   10.45200      5.4351445E-31
   10.46400      1.1714152E-31
   10.47600     -4.0518002E-31
   10.48800     -1.0062625E-30
   10.50000     -1.6600040E-30
   10.51200     -2.3314888E-30
   10.52400     -2.9777247E-30
   10.53600     -3.5490838E-30
   10.54800     -3.9914804E-30
   10.56000     -4.2492676E-30
   10.57200     -4.2687857E-30
   10.58400     -4.0024383E-30
   10.59600     -3.4131082E-30
   10.60800     -2.4786745E-30
   10.62000     -1.1963307E-30
   10.63200      4.1361856E-31
   10.64400      2.3048489E-30
   10.65600      4.4033499E-30
   10.66800      6.6073375E-30
   10.68000      8.7890415E-30
   10.69200      1.0798574E-29
   10.70400      1.2469998E-29
   10.71600      1.3629565E-29
   10.72800      1.4105961E-29
   10.74000      1.3742213E-29
   10.75200      1.2408756E-29
   10.76400      1.0016979E-29
   10.77600      6.5324249E-30
   10.78800      1.9867081E-30
   10.80000     -3.5128879E-30
   10.81200     -9.7771654E-30
   10.82400     -1.6533108E-29
   10.83600     -2.3427222E-29
   10.84800     -3.0034766E-29
   10.86000     -3.5875296E-29
   10.87200     -4.0434547E-29
   10.88400     -4.3192328E-29
   10.89600     -4.3655542E-29
   10.90800     -4.1395075E-29
   10.92000     -3.6084780E-29
   10.93200     -2.7540287E-29
   10.94400     -1.5755130E-29
   10.95600     -9.3132292E-31
   10.96800      1.6498526E-29
   10.98000      3.5860403E-29
   10.99200      5.6242023E-29
   11.00400      7.6511918E-29
   11.01600      9.5355939E-29
   11.02800      1.1133165E-28
   11.04000      1.2294009E-28
   11.05200      1.2871279E-28
   11.06400      1.2731134E-28
   11.07600      1.1763472E-28
   11.08800      9.8928918E-29
   11.10000      7.0891953E-29
   11.11200      3.3766960E-29
   11.12400     -1.1584744E-29
   11.13600     -6.3638419E-29
   11.14800     -1.2019592E-28
   11.16000     -1.7841730E-28
   11.17200     -2.3489843E-28
   11.18400     -2.8579731E-28
   11.19600     -3.2700820E-28
   11.20800     -3.5438057E-28
   11.22000     -3.6397558E-28
   11.23200     -3.5234970E-28
   11.24400     -3.1685147E-28
   11.25600     -2.5591497E-28
   11.26800     -1.6933022E-28
   11.28000     -5.8469945E-29
   11.29200      7.3548442E-29
   11.30400      2.2178622E-28
   11.31600      3.7951032E-28
   11.32800      5.3833786E-28
   11.34000      6.8850763E-28
   11.35200      8.1928078E-28
   11.36400      9.1946505E-28
   11.37600      9.7804895E-28
   11.38800      9.8492221E-28
   11.40000      9.3164993E-28
   11.41200      8.1226067E-28
   11.42400      6.2399947E-28
   11.43600      3.6799528E-28
   11.44800      4.9784359E-29
   11.46000     -3.2036174E-28
   11.47200     -7.2735614E-28