 -0.1200000      0.0000000E+00
 -0.1080000      0.0000000E+00
 -9.6000001E-02  0.0000000E+00
 -8.3999999E-02  0.0000000E+00
 -7.1999997E-02  0.0000000E+00
 -5.9999999E-02  0.0000000E+00
 -4.8000000E-02  0.0000000E+00
 -3.5999998E-02  0.0000000E+00
 -2.4000000E-02  0.0000000E+00
 -1.2000000E-02  0.0000000E+00
  6.9388939E-18  0.0000000E+00
  1.2000000E-02  0.0000000E+00
  2.4000000E-02  0.0000000E+00
  3.5999998E-02  0.0000000E+00
  4.8000000E-02  0.0000000E+00
  5.9999999E-02  0.0000000E+00
  7.1999997E-02  0.0000000E+00
  8.3999999E-02  0.0000000E+00
  9.6000001E-02  0.0000000E+00
  0.1080000      0.0000000E+00
  0.1200000      0.0000000E+00
  0.1320000      0.0000000E+00
  0.1440000      0.0000000E+00
  0.1560000      0.0000000E+00
  0.1680000      0.0000000E+00
  0.1800000      0.0000000E+00
  0.1920000      0.0000000E+00
  0.2040000      0.0000000E+00
  0.2160000      0.0000000E+00
  0.2280000      0.0000000E+00
  0.2400000      0.0000000E+00
  0.2520000      0.0000000E+00
  0.2640000      0.0000000E+00
  0.2760000      0.0000000E+00
  0.2880000      0.0000000E+00
  0.3000000      0.0000000E+00
  0.3120000      0.0000000E+00
  0.3240000      0.0000000E+00
  0.3360000      0.0000000E+00
  0.3480000      0.0000000E+00
  0.3600000      0.0000000E+00
  0.3720000      0.0000000E+00
  0.3840000      0.0000000E+00
  0.3960000      0.0000000E+00
  0.4080000      0.0000000E+00
  0.4200000      0.0000000E+00
  0.4320000      0.0000000E+00
  0.4440000      0.0000000E+00
  0.4560000      0.0000000E+00
  0.4680000      0.0000000E+00
  0.4800000      0.0000000E+00
  0.4920000      0.0000000E+00
  0.5040000      0.0000000E+00
  0.5160000      0.0000000E+00
  0.5280000      0.0000000E+00
  0.5400000      0.0000000E+00
  0.5520000      0.0000000E+00
  0.5640000      0.0000000E+00
  0.5760000      0.0000000E+00
  0.5880000      0.0000000E+00
  0.6000000      0.0000000E+00
  0.6120000      0.0000000E+00
  0.6240000      0.0000000E+00
  0.6360000      0.0000000E+00
  0.6480000      0.0000000E+00
  0.6600000      0.0000000E+00
  0.6720000      0.0000000E+00
  0.6840000      0.0000000E+00
  0.6960000      0.0000000E+00
  0.7080000      0.0000000E+00
  0.7200000      0.0000000E+00
  0.7320000      0.0000000E+00
  0.7440000      0.0000000E+00
  0.7560000      0.0000000E+00
  0.7680000      0.0000000E+00
  0.7800000      0.0000000E+00
  0.7920000      0.0000000E+00
  0.8040000      0.0000000E+00
  0.8160000      0.0000000E+00
  0.8280000      0.0000000E+00
  0.8400000      0.0000000E+00
  0.8520000      0.0000000E+00
  0.8640000      0.0000000E+00
  0.8760000      0.0000000E+00
  0.8880000      0.0000000E+00
  0.9000000      0.0000000E+00
  0.9120000      0.0000000E+00
  0.9240000      0.0000000E+00
  0.9360000      0.0000000E+00
  0.9480000      0.0000000E+00
  0.9600000      0.0000000E+00
  0.9720000      0.0000000E+00
  0.9840000      0.0000000E+00
  0.9960000      0.0000000E+00
   1.008000      0.0000000E+00
   1.020000      0.0000000E+00
   1.032000      0.0000000E+00
   1.044000      0.0000000E+00
   1.056000      0.0000000E+00
   1.068000      0.0000000E+00
   1.080000      0.0000000E+00
   1.092000      0.0000000E+00
   1.104000      0.0000000E+00
   1.116000      0.0000000E+00
   1.128000      0.0000000E+00
   1.140000      0.0000000E+00
   1.152000      0.0000000E+00
   1.164000      0.0000000E+00
   1.176000      0.0000000E+00
   1.188000      0.0000000E+00
   1.200000      0.0000000E+00
   1.212000      0.0000000E+00
   1.224000      0.0000000E+00
   1.236000      0.0000000E+00
   1.248000      0.0000000E+00
   1.260000      0.0000000E+00
   1.272000      0.0000000E+00
   1.284000      0.0000000E+00
   1.296000      0.0000000E+00
   1.308000      0.0000000E+00
   1.320000      0.0000000E+00
   1.332000      0.0000000E+00
   1.344000      0.0000000E+00
   1.356000      0.0000000E+00
   1.368000      0.0000000E+00
   1.380000      0.0000000E+00
   1.392000      0.0000000E+00
   1.404000      0.0000000E+00
   1.416000      0.0000000E+00
   1.428000      0.0000000E+00
   1.440000      0.0000000E+00
   1.452000      0.0000000E+00
   1.464000      0.0000000E+00
   1.476000      0.0000000E+00
   1.488000      0.0000000E+00
   1.500000      0.0000000E+00
   1.512000      0.0000000E+00
   1.524000      0.0000000E+00
   1.536000      0.0000000E+00
   1.548000      0.0000000E+00
   1.560000      0.0000000E+00
   1.572000      0.0000000E+00
   1.584000      0.0000000E+00
   1.596000      0.0000000E+00
   1.608000      0.0000000E+00
   1.620000      0.0000000E+00
   1.632000      0.0000000E+00
   1.644000      0.0000000E+00
   1.656000      0.0000000E+00
   1.668000      0.0000000E+00
   1.680000      0.0000000E+00
   1.692000      0.0000000E+00
   1.704000      0.0000000E+00
   1.716000      0.0000000E+00
   1.728000      0.0000000E+00
   1.740000      0.0000000E+00
   1.752000      0.0000000E+00
   1.764000      0.0000000E+00
   1.776000      0.0000000E+00
   1.788000      0.0000000E+00
   1.800000      0.0000000E+00
   1.812000      0.0000000E+00
   1.824000      0.0000000E+00
   1.836000      0.0000000E+00
   1.848000      0.0000000E+00
   1.860000      0.0000000E+00
   1.872000      0.0000000E+00
   1.884000      0.0000000E+00
   1.896000      0.0000000E+00
   1.908000      0.0000000E+00
   1.920000      0.0000000E+00
   1.932000      0.0000000E+00
   1.944000      0.0000000E+00
   1.956000      0.0000000E+00
   1.968000      0.0000000E+00
   1.980000      0.0000000E+00
   1.992000      0.0000000E+00
   2.004000      0.0000000E+00
   2.016000      0.0000000E+00
   2.028000      0.0000000E+00
   2.040000      0.0000000E+00
   2.052000      0.0000000E+00
   2.064000      0.0000000E+00
   2.076000      0.0000000E+00
   2.088000      0.0000000E+00
   2.100000      0.0000000E+00
   2.112000      0.0000000E+00
   2.124000      0.0000000E+00
   2.136000      0.0000000E+00
   2.148000      0.0000000E+00
   2.160000      0.0000000E+00
   2.172000      0.0000000E+00
   2.184000      0.0000000E+00
   2.196000      0.0000000E+00
   2.208000      0.0000000E+00
   2.220000      0.0000000E+00
   2.232000      0.0000000E+00
   2.244000      0.0000000E+00
   2.256000      0.0000000E+00
   2.268000      0.0000000E+00
   2.280000      0.0000000E+00
   2.292000      0.0000000E+00
   2.304000      0.0000000E+00
   2.316000      0.0000000E+00
   2.328000      0.0000000E+00
   2.340000      0.0000000E+00
   2.352000      0.0000000E+00
   2.364000      0.0000000E+00
   2.376000      0.0000000E+00
   2.388000      0.0000000E+00
   2.400000      0.0000000E+00
   2.412000      0.0000000E+00
   2.424000      0.0000000E+00
   2.436000      0.0000000E+00
   2.448000      0.0000000E+00
   2.460000      0.0000000E+00
   2.472000      0.0000000E+00
   2.484000      0.0000000E+00
   2.496000      0.0000000E+00
   2.508000      0.0000000E+00
   2.520000      0.0000000E+00
   2.532000      0.0000000E+00
   2.544000      0.0000000E+00
   2.556000      0.0000000E+00
   2.568000      0.0000000E+00
   2.580000      0.0000000E+00
   2.592000      0.0000000E+00
   2.604000      0.0000000E+00
   2.616000      0.0000000E+00
   2.628000      0.0000000E+00
   2.640000      0.0000000E+00
   2.652000      0.0000000E+00
   2.664000      0.0000000E+00
   2.676000      0.0000000E+00
   2.688000      0.0000000E+00
   2.700000      0.0000000E+00
   2.712000      0.0000000E+00
   2.724000      0.0000000E+00
   2.736000      0.0000000E+00
   2.748000      0.0000000E+00
   2.760000      0.0000000E+00
   2.772000      0.0000000E+00
   2.784000      0.0000000E+00
   2.796000      0.0000000E+00
   2.808000      0.0000000E+00
   2.820000      0.0000000E+00
   2.832000      0.0000000E+00
   2.844000      0.0000000E+00
   2.856000      0.0000000E+00
   2.868000      0.0000000E+00
   2.880000      0.0000000E+00
   2.892000      0.0000000E+00
   2.904000      0.0000000E+00
   2.916000      0.0000000E+00
   2.928000      0.0000000E+00
   2.940000      0.0000000E+00
   2.952000      0.0000000E+00
   2.964000      0.0000000E+00
   2.976000      0.0000000E+00
   2.988000      0.0000000E+00
   3.000000      0.0000000E+00
   3.012000      0.0000000E+00
   3.024000      0.0000000E+00
   3.036000      0.0000000E+00
   3.048000      0.0000000E+00
   3.060000      0.0000000E+00
   3.072000      0.0000000E+00
   3.084000      0.0000000E+00
   3.096000      0.0000000E+00
   3.108000      0.0000000E+00
   3.120000      0.0000000E+00
   3.132000      0.0000000E+00
   3.144000      0.0000000E+00
   3.156000      0.0000000E+00
   3.168000      0.0000000E+00
   3.180000      0.0000000E+00
   3.192000      0.0000000E+00
   3.204000      0.0000000E+00
   3.216000      0.0000000E+00
   3.228000      0.0000000E+00
   3.240000      0.0000000E+00
   3.252000      0.0000000E+00
   3.264000      0.0000000E+00
   3.276000      0.0000000E+00
   3.288000      0.0000000E+00
   3.300000      0.0000000E+00
   3.312000      0.0000000E+00
   3.324000      0.0000000E+00
   3.336000      0.0000000E+00
   3.348000      0.0000000E+00
   3.360000      0.0000000E+00
   3.372000      0.0000000E+00
   3.384000      0.0000000E+00
   3.396000      0.0000000E+00
   3.408000      0.0000000E+00
   3.420000      0.0000000E+00
   3.432000      0.0000000E+00
   3.444000      0.0000000E+00
   3.456000      0.0000000E+00
   3.468000      0.0000000E+00
   3.480000      0.0000000E+00
   3.492000      0.0000000E+00
   3.504000      0.0000000E+00
   3.516000      0.0000000E+00
   3.528000      0.0000000E+00
   3.540000      0.0000000E+00
   3.552000      0.0000000E+00
   3.564000      0.0000000E+00
   3.576000      0.0000000E+00
   3.588000      0.0000000E+00
   3.600000      0.0000000E+00
   3.612000      0.0000000E+00
   3.624000      0.0000000E+00
   3.636000      0.0000000E+00
   3.648000      0.0000000E+00
   3.660000      0.0000000E+00
   3.672000      0.0000000E+00
   3.684000      0.0000000E+00
   3.696000      0.0000000E+00
   3.708000      0.0000000E+00
   3.720000      0.0000000E+00
   3.732000      0.0000000E+00
   3.744000      0.0000000E+00
   3.756000      0.0000000E+00
   3.768000      0.0000000E+00
   3.780000      0.0000000E+00
   3.792000      0.0000000E+00
   3.804000      0.0000000E+00
   3.816000      0.0000000E+00
   3.828000      0.0000000E+00
   3.840000      0.0000000E+00
   3.852000      0.0000000E+00
   3.864000      0.0000000E+00
   3.876000      0.0000000E+00
   3.888000      0.0000000E+00
   3.900000      0.0000000E+00
   3.912000      0.0000000E+00
   3.924000      0.0000000E+00
   3.936000      0.0000000E+00
   3.948000      0.0000000E+00
   3.960000      0.0000000E+00
   3.972000      0.0000000E+00
   3.984000      0.0000000E+00
   3.996000      0.0000000E+00
   4.008000      0.0000000E+00
   4.020000      0.0000000E+00
   4.032000      0.0000000E+00
   4.044000      0.0000000E+00
   4.056000      0.0000000E+00
   4.068000      0.0000000E+00
   4.080000      0.0000000E+00
   4.092000      0.0000000E+00
   4.104000      0.0000000E+00
   4.116000      0.0000000E+00
   4.128000      0.0000000E+00
   4.140000      0.0000000E+00
   4.152000      0.0000000E+00
   4.164000      0.0000000E+00
   4.176000      0.0000000E+00
   4.188000      0.0000000E+00
   4.200000      0.0000000E+00
   4.212000      0.0000000E+00
   4.224000      0.0000000E+00
   4.236000      0.0000000E+00
   4.248000      0.0000000E+00
   4.260000      0.0000000E+00
   4.272000      0.0000000E+00
   4.284000      0.0000000E+00
   4.296000      0.0000000E+00
   4.308000      0.0000000E+00
   4.320000      0.0000000E+00
   4.332000      0.0000000E+00
   4.344000      0.0000000E+00
   4.356000      0.0000000E+00
   4.368000      0.0000000E+00
   4.380000      0.0000000E+00
   4.392000      0.0000000E+00
   4.404000      0.0000000E+00
   4.416000      0.0000000E+00
   4.428000      0.0000000E+00
   4.440000      0.0000000E+00
   4.452000      0.0000000E+00
   4.464000      0.0000000E+00
   4.476000      0.0000000E+00
   4.488000      0.0000000E+00
   4.500000      0.0000000E+00
   4.512000      0.0000000E+00
   4.524000      0.0000000E+00
   4.536000      0.0000000E+00
   4.548000      0.0000000E+00
   4.560000      0.0000000E+00
   4.572000      0.0000000E+00
   4.584000      0.0000000E+00
   4.596000      0.0000000E+00
   4.608000      0.0000000E+00
   4.620000      0.0000000E+00
   4.632000      0.0000000E+00
   4.644000      0.0000000E+00
   4.656000      0.0000000E+00
   4.668000      0.0000000E+00
   4.680000      0.0000000E+00
   4.692000      0.0000000E+00
   4.704000      0.0000000E+00
   4.716000      0.0000000E+00
   4.728000      0.0000000E+00
   4.740000      0.0000000E+00
   4.752000      0.0000000E+00
   4.764000      0.0000000E+00
   4.776000      0.0000000E+00
   4.788000      0.0000000E+00
   4.800000      0.0000000E+00
   4.812000      0.0000000E+00
   4.824000      0.0000000E+00
   4.836000      0.0000000E+00
   4.848000      0.0000000E+00
   4.860000      0.0000000E+00
   4.872000      0.0000000E+00
   4.884000      0.0000000E+00
   4.896000      0.0000000E+00
   4.908000      0.0000000E+00
   4.920000      0.0000000E+00
   4.932000      0.0000000E+00
   4.944000      0.0000000E+00
   4.956000      0.0000000E+00
   4.968000      0.0000000E+00
   4.980000      0.0000000E+00
   4.992000      0.0000000E+00
   5.004000      0.0000000E+00
   5.016000      0.0000000E+00
   5.028000      0.0000000E+00
   5.040000      0.0000000E+00
   5.052000      0.0000000E+00
   5.064000      0.0000000E+00
   5.076000      0.0000000E+00
   5.088000      0.0000000E+00
   5.100000      0.0000000E+00
   5.112000      0.0000000E+00
   5.124000      0.0000000E+00
   5.136000      0.0000000E+00
   5.148000      0.0000000E+00
   5.160000      0.0000000E+00
   5.172000      0.0000000E+00
   5.184000      0.0000000E+00
   5.196000      0.0000000E+00
   5.208000      0.0000000E+00
   5.220000      0.0000000E+00
   5.232000      0.0000000E+00
   5.244000      0.0000000E+00
   5.256000      0.0000000E+00
   5.268000      0.0000000E+00
   5.280000      0.0000000E+00
   5.292000      0.0000000E+00
   5.304000      0.0000000E+00
   5.316000      0.0000000E+00
   5.328000      0.0000000E+00
   5.340000      0.0000000E+00
   5.352000      0.0000000E+00
   5.364000      0.0000000E+00
   5.376000      0.0000000E+00
   5.388000      0.0000000E+00
   5.400000      0.0000000E+00
   5.412000      0.0000000E+00
   5.424000      0.0000000E+00
   5.436000      0.0000000E+00
   5.448000      0.0000000E+00
   5.460000      0.0000000E+00
   5.472000      0.0000000E+00
   5.484000      0.0000000E+00
   5.496000      0.0000000E+00
   5.508000      0.0000000E+00
   5.520000      0.0000000E+00
   5.532000      0.0000000E+00
   5.544000      0.0000000E+00
   5.556000      0.0000000E+00
   5.568000      0.0000000E+00
   5.580000      0.0000000E+00
   5.592000      0.0000000E+00
   5.604000      0.0000000E+00
   5.616000      0.0000000E+00
   5.628000      0.0000000E+00
   5.640000      0.0000000E+00
   5.652000      0.0000000E+00
   5.664000      0.0000000E+00
   5.676000      0.0000000E+00
   5.688000      0.0000000E+00
   5.700000      0.0000000E+00
   5.712000      0.0000000E+00
   5.724000      0.0000000E+00
   5.736000      0.0000000E+00
   5.748000      0.0000000E+00
   5.760000      0.0000000E+00
   5.772000      0.0000000E+00
   5.784000      0.0000000E+00
   5.796000      0.0000000E+00
   5.808000      0.0000000E+00
   5.820000      0.0000000E+00
   5.832000      0.0000000E+00
   5.844000      0.0000000E+00
   5.856000      0.0000000E+00
   5.868000      0.0000000E+00
   5.880000      0.0000000E+00
   5.892000      0.0000000E+00
   5.904000      0.0000000E+00
   5.916000      0.0000000E+00
   5.928000      0.0000000E+00
   5.940000      0.0000000E+00
   5.952000      0.0000000E+00
   5.964000      0.0000000E+00
   5.976000      0.0000000E+00
   5.988000      0.0000000E+00
   6.000000      0.0000000E+00
   6.012000      0.0000000E+00
   6.024000      0.0000000E+00
   6.036000      0.0000000E+00
   6.048000      0.0000000E+00
   6.060000      0.0000000E+00
   6.072000      0.0000000E+00
   6.084000      0.0000000E+00
   6.096000      0.0000000E+00
   6.108000      0.0000000E+00
   6.120000      0.0000000E+00
   6.132000      0.0000000E+00
   6.144000      0.0000000E+00
   6.156000      0.0000000E+00
   6.168000      0.0000000E+00
   6.180000      0.0000000E+00
   6.192000      0.0000000E+00
   6.204000      0.0000000E+00
   6.216000      0.0000000E+00
   6.228000      0.0000000E+00
   6.240000      0.0000000E+00
   6.252000      0.0000000E+00
   6.264000      0.0000000E+00
   6.276000      0.0000000E+00
   6.288000      0.0000000E+00
   6.300000      0.0000000E+00
   6.312000      0.0000000E+00
   6.324000      0.0000000E+00
   6.336000      0.0000000E+00
   6.348000      0.0000000E+00
   6.360000      0.0000000E+00
   6.372000      0.0000000E+00
   6.384000      0.0000000E+00
   6.396000      0.0000000E+00
   6.408000      0.0000000E+00
   6.420000      0.0000000E+00
   6.432000      0.0000000E+00
   6.444000      0.0000000E+00
   6.456000      0.0000000E+00
   6.468000      0.0000000E+00
   6.480000      0.0000000E+00
   6.492000      0.0000000E+00
   6.504000      0.0000000E+00
   6.516000      0.0000000E+00
   6.528000      0.0000000E+00
   6.540000      0.0000000E+00
   6.552000      0.0000000E+00
   6.564000      0.0000000E+00
   6.576000      0.0000000E+00
   6.588000      0.0000000E+00
   6.600000      0.0000000E+00
   6.612000      0.0000000E+00
   6.624000      0.0000000E+00
   6.636000      0.0000000E+00
   6.648000      0.0000000E+00
   6.660000      0.0000000E+00
   6.672000      0.0000000E+00
   6.684000      0.0000000E+00
   6.696000      0.0000000E+00
   6.708000      1.6165308E-38
   6.720000      1.8922685E-38
   6.732000      1.9182148E-38
   6.744000      1.6096982E-38
   6.756000     -1.5554521E-38
   6.768000     -5.4061366E-38
   6.780000     -7.7631358E-38
   6.792000     -9.3294310E-38
   6.804000     -6.0485445E-38
   6.816000      4.1100025E-38
   6.828000      1.7444783E-37
   6.840000      2.9577025E-37
   6.852000      3.4353226E-37
   6.864000      2.8261988E-37
   6.876000      1.2154034E-37
   6.888000     -1.1282858E-37
   6.900000     -3.2516292E-37
   6.912000     -4.4593851E-37
   6.924000     -5.2165889E-37
   6.936000     -5.8276815E-37
   6.948000     -6.4284412E-37
   6.960000     -7.1942816E-37
   6.972000     -7.9396450E-37
   6.984000     -8.1481887E-37
   6.996000     -7.4365201E-37
   7.008000     -6.2075186E-37
   7.020000     -3.6346229E-37
   7.032000      0.0000000E+00
   7.044000      2.7366355E-37
   7.056000      3.4789205E-37
   7.068000      2.0117442E-37
   7.080000     -2.6350487E-37
   7.092000     -9.5306941E-37
   7.104000     -1.8268808E-36
   7.116000     -2.7844452E-36
   7.128000     -3.4470138E-36
   7.140000     -3.5337589E-36
   7.152000     -2.9204665E-36
   7.164000     -1.5794254E-36
   7.176000      4.9921130E-37
   7.188000      3.2448031E-36
   7.200000      6.5921772E-36
   7.212000      1.0454777E-35
   7.224000      1.4705572E-35
   7.236000      1.9287964E-35
   7.248000      2.3760617E-35
   7.260000      2.7900513E-35
   7.272000      3.1277927E-35
   7.284000      3.3234529E-35
   7.296000      3.3004489E-35
   7.308000      2.9964218E-35
   7.320000      2.3551641E-35
   7.332000      1.3323735E-35
   7.344000     -8.5909533E-37
   7.356000     -1.8750204E-35
   7.368000     -3.9526213E-35
   7.380000     -6.1989230E-35
   7.392000     -8.4503643E-35
   7.404000     -1.0503769E-34
   7.416000     -1.2133279E-34
   7.428000     -1.3097860E-34
   7.440000     -1.3166488E-34
   7.452000     -1.2138203E-34
   7.464000     -9.8543689E-35
   7.476000     -6.2322954E-35
   7.488000     -1.2812891E-35
   7.500000      4.8738883E-35
   7.512000      1.1982845E-34
   7.524000      1.9663527E-34
   7.536000      2.7406029E-34
   7.548000      3.4568061E-34
   7.560000      4.0400437E-34
   7.572000      4.4108277E-34
   7.584000      4.4896248E-34
   7.596000      4.2038575E-34
   7.608000      3.4960407E-34
   7.620000      2.3322026E-34
   7.632000      7.1005685E-35
   7.644000     -1.3340412E-34
   7.656000     -3.7201189E-34
   7.668000     -6.3224446E-34
   7.680000     -8.9704297E-34
   7.692000     -1.1453781E-33
   7.704000     -1.3531433E-33
   7.716000     -1.4945217E-33
   7.728000     -1.5437025E-33
   7.740000     -1.4770042E-33
   7.752000     -1.2752511E-33
   7.764000     -9.2628027E-34
   7.776000     -4.2740589E-34
   7.788000      2.1239805E-34
   7.800000      9.7082113E-34
   7.812000      1.8112897E-33
   7.824000      2.6830163E-33
   7.836000      3.5222208E-33
   7.848000      4.2546607E-33
   7.860000      4.7995254E-33
   7.872000      5.0746506E-33
   7.884000      5.0028793E-33
   7.896000      4.5192685E-33
   7.908000      3.5787073E-33
   7.920000      2.1634050E-33
   7.932000      2.8962066E-34
   7.944000     -1.9870384E-33
   7.956000     -4.5684163E-33
   7.968000     -7.3133337E-33
   7.980000     -1.0040370E-32
   7.992000     -1.2534282E-32
   8.004000     -1.4556239E-32
   8.016000     -1.5857816E-32
   8.028000     -1.6198328E-32
   8.040000     -1.5364813E-32
   8.052000     -1.3193562E-32
   8.064000     -9.5918230E-33
   8.076000     -4.5580106E-33
   8.088000      1.8014100E-33
   8.100000      9.2602007E-33
   8.112000      1.7467571E-32
   8.124000      2.5951856E-32
   8.136000      3.4133773E-32
   8.148000      4.1349892E-32
   8.160000      4.6886276E-32
   8.172000      5.0021563E-32
   8.184000      5.0077893E-32
   8.196000      4.6477401E-32
   8.208000      3.8801105E-32
   8.220000      2.6846525E-32
   8.232000      1.0679781E-32
   8.244000     -9.3222499E-33
   8.256000     -3.2444111E-32
   8.268000     -5.7622398E-32
   8.280000     -8.3458306E-32
   8.292000     -1.0825470E-31
   8.304000     -1.3007916E-31
   8.316000     -1.4685309E-31
   8.328000     -1.5646516E-31
   8.340000     -1.5690633E-31
   8.352000     -1.4642095E-31
   8.364000     -1.2366795E-31
   8.376000     -8.7883655E-32
   8.388000     -3.9036786E-32
   8.400000      2.2034433E-32
   8.412000      9.3514713E-32
   8.424000      1.7254484E-31
   8.436000      2.5520706E-31
   8.448000      3.3657328E-31
   8.460000      4.1082550E-31
   8.472000      4.7145590E-31
   8.484000      5.1155111E-31
   8.496000      5.2416139E-31
   8.508000      5.0275071E-31
   8.520000      4.4171815E-31
   8.532000      3.3697417E-31
   8.544000      1.8654677E-31
   8.556000     -8.8140124E-33
   8.568000     -2.4507529E-31
   8.580000     -5.1445313E-31
   8.592000     -8.0509298E-31
   8.604000     -1.1009602E-30
   8.616000     -1.3820020E-30
   8.628000     -1.6246402E-30
   8.640000     -1.8026454E-30
   8.652000     -1.8884257E-30
   8.664000     -1.8547413E-30
   8.676000     -1.6768250E-30
   8.688000     -1.3348499E-30
   8.700000     -8.1663878E-31
   8.712000     -1.2046547E-31
   8.724000      7.4225523E-31
   8.736000      1.7446366E-30
   8.748000      2.8426308E-30
   8.760000      3.9742881E-30
   8.772000      5.0602715E-30
   8.784000      6.0059110E-30
   8.796000      6.7050145E-30
   8.808000      7.0455791E-30
   8.820000      6.9173942E-30
   8.832000      6.2213827E-30
   8.844000      4.8803313E-30
   8.856000      2.8504489E-30
   8.868000      1.3297384E-31
   8.880000     -3.2151365E-30
   8.892000     -7.0725685E-30
   8.904000     -1.1248310E-29
   8.916000     -1.5480861E-29
   8.928000     -1.9443154E-29
   8.940000     -2.2754169E-29
   8.952000     -2.4997823E-29
   8.964000     -2.5749262E-29
   8.976000     -2.4608073E-29
   8.988000     -2.1237184E-29
   9.000000     -1.5405479E-29
   9.012000     -7.0313152E-30
   9.024000      3.7765338E-30
   9.036000      1.6684637E-29
   9.048000      3.1111800E-29
   9.060000      4.6221621E-29
   9.072000      6.0934865E-29
   9.084000      7.3965105E-29
   9.096000      8.3879732E-29
   9.108000      8.9186861E-29
   9.120000      8.8446455E-29
   9.132000      8.0401448E-29
   9.144000      6.4122303E-29
   9.156000      3.9155474E-29
   9.168000      5.6640539E-30
   9.180000     -3.5452955E-29
   9.192000     -8.2477541E-29
   9.204000     -1.3284040E-28
   9.216000     -1.8315324E-28
   9.228000     -2.2931615E-28
   9.240000     -2.6670747E-28
   9.252000     -2.9045660E-28
   9.264000     -2.9579472E-28
   9.276000     -2.7846963E-28
   9.288000     -2.3520314E-28
   9.300000     -1.6416139E-28
   9.312000     -6.5401072E-29
   9.324000      5.8750613E-29
   9.336000      2.0342758E-28
   9.348000      3.6111276E-28
   9.360000      5.2172320E-28
   9.372000      6.7292426E-28
   9.384000      8.0069160E-28
   9.396000      8.9012361E-28
   9.408000      9.2648603E-28
   9.420000      8.9644509E-28
   9.432000      7.8942645E-28
   9.444000      5.9900909E-28
   9.456000      3.2424685E-28
   9.468000     -2.9205963E-29
   9.480000     -4.4829448E-28
   9.492000     -9.1221633E-28
   9.504000     -1.3926414E-27
   9.516000     -1.8545856E-27
   9.528000     -2.2579884E-27
   9.540000     -2.5599958E-27
   9.552000     -2.7178887E-27
   9.564000     -2.6925394E-27
   9.576000     -2.4522057E-27
   9.588000     -1.9764168E-27
   9.600000     -1.2596525E-27
   9.612000     -3.1447427E-28
   9.624000      8.2623598E-28
   9.636000      2.1082745E-27
   9.648000      3.4566471E-27
   9.660000      4.7778589E-27
   9.672000      5.9640877E-27
   9.684000      6.8992180E-27
   9.696000      7.4665885E-27
   9.708000      7.5581056E-27
   9.720000      7.0842406E-27
   9.732000      5.9842445E-27
   9.744000      4.2358164E-27
   9.756000      1.8633465E-27
   9.768000     -1.0561424E-27
   9.780000     -4.3902197E-27
   9.792000     -7.9521686E-27
   9.804000     -1.1506560E-26
   9.816000     -1.4779542E-26
   9.828000     -1.7473816E-26
   9.840000     -1.9287859E-26
   9.852000     -1.9938555E-26
   9.864000     -1.9186023E-26
   9.876000     -1.6859016E-26
   9.888000     -1.2879036E-26
   9.900000     -7.2810752E-27
   9.912000     -2.2885354E-28
   9.924000      7.9774638E-27
   9.936000      1.6902798E-26
   9.948000      2.5989232E-26
   9.960000      3.4579280E-26
   9.972000      4.1950239E-26
   9.984000      4.7358670E-26
   9.996000      5.0093077E-26
   10.00800      4.9532099E-26
   10.02000      4.5204500E-26
   10.03200      3.6846818E-26
   10.04400      2.4453995E-26
   10.05600      8.3182070E-27
   10.06800     -1.0948617E-26
   10.08000     -3.2412563E-26
   10.09200     -5.4838707E-26
   10.10400     -7.6737098E-26
   10.11600     -9.6433605E-26
   10.12800     -1.1216411E-25
   10.14000     -1.2218830E-25
   10.15200     -1.2491758E-25
   10.16400     -1.1904980E-25
   10.17600     -1.0370245E-25
   10.18800     -7.8534437E-26
   10.20000     -4.3846855E-26
   10.21200     -6.5273281E-28
   10.22400      4.9292667E-26
   10.23600      1.0350826E-25
   10.24800      1.5885498E-25
   10.26000      2.1165688E-25
   10.27200      2.5787446E-25
   10.28400      2.9332464E-25
   10.29600      3.1393982E-25
   10.30800      3.1605328E-25
   10.32000      2.9669680E-25
   10.33200      2.5389269E-25
   10.34400      1.8692189E-25
   10.35600      9.6548279E-26
   10.36800     -1.4819392E-26
   10.38000     -1.4304573E-25
   10.39200     -2.8228182E-25
   10.40400     -4.2508460E-25
   10.41600     -5.6264883E-25
   10.42800     -6.8515326E-25
   10.44000     -7.8221648E-25
   10.45200     -8.4345097E-25
   10.46400     -8.5909812E-25
   10.47600     -8.2072117E-25
   10.48800     -7.2192354E-25
   10.50000     -5.5906084E-25
   10.51200     -3.3190174E-25
   10.52400     -4.4196515E-26
   10.53600      2.9589418E-25
   10.54800      6.7555805E-25
   10.56000      1.0773218E-24
   10.57200      1.4793156E-24
   10.58400      1.8558452E-24
   10.59600      2.1782962E-24
   10.60800      2.4163786E-24
   10.62000      2.5397051E-24
   10.63200      2.5196722E-24
   10.64400      2.3315902E-24
   10.65600      1.9569797E-24
   10.66800      1.3859250E-24
   10.68000      6.1934574E-25
   10.69200     -3.2897925E-25
   10.70400     -1.4308171E-24
   10.71600     -2.6425146E-24
   10.72800     -3.9048583E-24
   10.74000     -5.1439466E-24
   10.75200     -6.2732274E-24
   10.76400     -7.1968135E-24
   10.77600     -7.8141161E-24
   10.78800     -8.0257509E-24
   10.80000     -7.7405635E-24
   10.81200     -6.8835293E-24
   10.82400     -5.4041192E-24
   10.83600     -3.2846604E-24
   10.84800     -5.4805180E-25
   10.86000      2.7358341E-24
   10.87200      6.4458132E-24
   10.88400      1.0407863E-23
   10.89600      1.4397084E-23
   10.90800      1.8143727E-23
   10.92000      2.1343656E-23
   10.93200      2.3673381E-23
   10.94400      2.4809444E-23
   10.95600      2.4451594E-23
   10.96800      2.2348765E-23
   10.98000      1.8326498E-23
   10.99200      1.2314012E-23
   11.00400      4.3688438E-24
   11.01600     -5.3032468E-24
   11.02800     -1.6335515E-23
   11.04000     -2.8196924E-23
   11.05200     -4.0200342E-23
   11.06400     -5.1523772E-23
   11.07600     -6.1245507E-23
   11.08800     -6.8393130E-23
   11.10000     -7.2005229E-23
   11.11200     -7.1203570E-23
   11.12400     -6.5272245E-23
   11.13600     -5.3739029E-23
   11.14800     -3.6453310E-23
   11.16000     -1.3654139E-23
   11.17200      1.3978581E-23
   11.18400      4.5296510E-23
   11.19600      7.8685215E-23
   11.20800      1.1210151E-22
   11.22000      1.4314925E-22
   11.23200      1.6919431E-22
   11.24400      1.8751750E-22
   11.25600      1.9549994E-22
   11.26800      1.9083290E-22
   11.28000      1.7174061E-22
   11.29200      1.3720149E-22
   11.30400      8.7150986E-23
   11.31600      2.2647714E-23
   11.32800     -5.4015717E-23
   11.34000     -1.3927474E-22
   11.35200     -2.2834287E-22
   11.36400     -3.1536079E-22
   11.37600     -3.9364959E-22
   11.38800     -4.5606712E-22
   11.40000     -4.9545716E-22
   11.41200     -5.0517481E-22
   11.42400     -4.7965934E-22
   11.43600     -4.1502220E-22
   11.44800     -3.0960721E-22
   11.46000     -1.6447814E-22
   11.47200      1.6215053E-23