 -0.1200000      0.0000000E+00
 -0.1080000      0.0000000E+00
 -9.6000001E-02  0.0000000E+00
 -8.3999999E-02  0.0000000E+00
 -7.1999997E-02  0.0000000E+00
 -5.9999999E-02  0.0000000E+00
 -4.8000000E-02  0.0000000E+00
 -3.5999998E-02  0.0000000E+00
 -2.4000000E-02  0.0000000E+00
 -1.2000000E-02  0.0000000E+00
  6.9388939E-18  0.0000000E+00
  1.2000000E-02  0.0000000E+00
  2.4000000E-02  0.0000000E+00
  3.5999998E-02  0.0000000E+00
  4.8000000E-02  0.0000000E+00
  5.9999999E-02  0.0000000E+00
  7.1999997E-02  0.0000000E+00
  8.3999999E-02  0.0000000E+00
  9.6000001E-02  0.0000000E+00
  0.1080000      0.0000000E+00
  0.1200000      0.0000000E+00
  0.1320000      0.0000000E+00
  0.1440000      0.0000000E+00
  0.1560000      0.0000000E+00
  0.1680000      0.0000000E+00
  0.1800000      0.0000000E+00
  0.1920000      0.0000000E+00
  0.2040000      0.0000000E+00
  0.2160000      0.0000000E+00
  0.2280000      0.0000000E+00
  0.2400000      0.0000000E+00
  0.2520000      0.0000000E+00
  0.2640000      0.0000000E+00
  0.2760000      0.0000000E+00
  0.2880000      0.0000000E+00
  0.3000000      0.0000000E+00
  0.3120000      0.0000000E+00
  0.3240000      0.0000000E+00
  0.3360000      0.0000000E+00
  0.3480000      0.0000000E+00
  0.3600000      0.0000000E+00
  0.3720000      0.0000000E+00
  0.3840000      0.0000000E+00
  0.3960000      0.0000000E+00
  0.4080000      0.0000000E+00
  0.4200000      0.0000000E+00
  0.4320000      0.0000000E+00
  0.4440000      0.0000000E+00
  0.4560000      0.0000000E+00
  0.4680000      0.0000000E+00
  0.4800000      0.0000000E+00
  0.4920000      0.0000000E+00
  0.5040000      0.0000000E+00
  0.5160000      0.0000000E+00
  0.5280000      0.0000000E+00
  0.5400000      0.0000000E+00
  0.5520000      0.0000000E+00
  0.5640000      0.0000000E+00
  0.5760000      0.0000000E+00
  0.5880000      0.0000000E+00
  0.6000000      0.0000000E+00
  0.6120000      0.0000000E+00
  0.6240000      0.0000000E+00
  0.6360000      0.0000000E+00
  0.6480000      0.0000000E+00
  0.6600000      0.0000000E+00
  0.6720000      0.0000000E+00
  0.6840000      0.0000000E+00
  0.6960000      0.0000000E+00
  0.7080000      0.0000000E+00
  0.7200000      0.0000000E+00
  0.7320000      0.0000000E+00
  0.7440000      0.0000000E+00
  0.7560000      0.0000000E+00
  0.7680000      0.0000000E+00
  0.7800000      0.0000000E+00
  0.7920000      0.0000000E+00
  0.8040000      0.0000000E+00
  0.8160000      0.0000000E+00
  0.8280000      0.0000000E+00
  0.8400000      0.0000000E+00
  0.8520000      0.0000000E+00
  0.8640000      0.0000000E+00
  0.8760000      0.0000000E+00
  0.8880000      0.0000000E+00
  0.9000000      0.0000000E+00
  0.9120000      0.0000000E+00
  0.9240000      0.0000000E+00
  0.9360000      0.0000000E+00
  0.9480000      0.0000000E+00
  0.9600000      0.0000000E+00
  0.9720000      0.0000000E+00
  0.9840000      0.0000000E+00
  0.9960000      0.0000000E+00
   1.008000      0.0000000E+00
   1.020000      0.0000000E+00
   1.032000      0.0000000E+00
   1.044000      0.0000000E+00
   1.056000      0.0000000E+00
   1.068000      0.0000000E+00
   1.080000      0.0000000E+00
   1.092000      0.0000000E+00
   1.104000      0.0000000E+00
   1.116000      0.0000000E+00
   1.128000      0.0000000E+00
   1.140000      0.0000000E+00
   1.152000      0.0000000E+00
   1.164000      0.0000000E+00
   1.176000      0.0000000E+00
   1.188000      0.0000000E+00
   1.200000      0.0000000E+00
   1.212000      0.0000000E+00
   1.224000      0.0000000E+00
   1.236000      0.0000000E+00
   1.248000      0.0000000E+00
   1.260000      0.0000000E+00
   1.272000      0.0000000E+00
   1.284000      0.0000000E+00
   1.296000      0.0000000E+00
   1.308000      0.0000000E+00
   1.320000      0.0000000E+00
   1.332000      0.0000000E+00
   1.344000      0.0000000E+00
   1.356000      0.0000000E+00
   1.368000      0.0000000E+00
   1.380000      0.0000000E+00
   1.392000      0.0000000E+00
   1.404000      0.0000000E+00
   1.416000      0.0000000E+00
   1.428000      0.0000000E+00
   1.440000      0.0000000E+00
   1.452000      0.0000000E+00
   1.464000      0.0000000E+00
   1.476000      0.0000000E+00
   1.488000      0.0000000E+00
   1.500000      0.0000000E+00
   1.512000      0.0000000E+00
   1.524000      0.0000000E+00
   1.536000      0.0000000E+00
   1.548000      0.0000000E+00
   1.560000      0.0000000E+00
   1.572000      0.0000000E+00
   1.584000      0.0000000E+00
   1.596000      0.0000000E+00
   1.608000      0.0000000E+00
   1.620000      0.0000000E+00
   1.632000      0.0000000E+00
   1.644000      0.0000000E+00
   1.656000      0.0000000E+00
   1.668000      0.0000000E+00
   1.680000      0.0000000E+00
   1.692000      0.0000000E+00
   1.704000      0.0000000E+00
   1.716000      0.0000000E+00
   1.728000      0.0000000E+00
   1.740000      0.0000000E+00
   1.752000      0.0000000E+00
   1.764000      0.0000000E+00
   1.776000      0.0000000E+00
   1.788000      0.0000000E+00
   1.800000      0.0000000E+00
   1.812000      0.0000000E+00
   1.824000      0.0000000E+00
   1.836000      0.0000000E+00
   1.848000      0.0000000E+00
   1.860000      0.0000000E+00
   1.872000      0.0000000E+00
   1.884000      0.0000000E+00
   1.896000      0.0000000E+00
   1.908000      0.0000000E+00
   1.920000      0.0000000E+00
   1.932000      0.0000000E+00
   1.944000      0.0000000E+00
   1.956000      0.0000000E+00
   1.968000      0.0000000E+00
   1.980000      0.0000000E+00
   1.992000      0.0000000E+00
   2.004000      0.0000000E+00
   2.016000      0.0000000E+00
   2.028000      0.0000000E+00
   2.040000      0.0000000E+00
   2.052000      0.0000000E+00
   2.064000      0.0000000E+00
   2.076000      0.0000000E+00
   2.088000      0.0000000E+00
   2.100000      0.0000000E+00
   2.112000      0.0000000E+00
   2.124000      0.0000000E+00
   2.136000      0.0000000E+00
   2.148000      0.0000000E+00
   2.160000      0.0000000E+00
   2.172000      0.0000000E+00
   2.184000      0.0000000E+00
   2.196000      0.0000000E+00
   2.208000      0.0000000E+00
   2.220000      0.0000000E+00
   2.232000      0.0000000E+00
   2.244000      0.0000000E+00
   2.256000      0.0000000E+00
   2.268000      0.0000000E+00
   2.280000      0.0000000E+00
   2.292000      0.0000000E+00
   2.304000      0.0000000E+00
   2.316000      0.0000000E+00
   2.328000      0.0000000E+00
   2.340000      0.0000000E+00
   2.352000      0.0000000E+00
   2.364000      0.0000000E+00
   2.376000      0.0000000E+00
   2.388000      0.0000000E+00
   2.400000      0.0000000E+00
   2.412000      0.0000000E+00
   2.424000      0.0000000E+00
   2.436000      0.0000000E+00
   2.448000      0.0000000E+00
   2.460000      0.0000000E+00
   2.472000      0.0000000E+00
   2.484000      0.0000000E+00
   2.496000      0.0000000E+00
   2.508000      0.0000000E+00
   2.520000      0.0000000E+00
   2.532000      0.0000000E+00
   2.544000      0.0000000E+00
   2.556000      0.0000000E+00
   2.568000      0.0000000E+00
   2.580000      0.0000000E+00
   2.592000      0.0000000E+00
   2.604000      0.0000000E+00
   2.616000      0.0000000E+00
   2.628000      0.0000000E+00
   2.640000      0.0000000E+00
   2.652000      0.0000000E+00
   2.664000      0.0000000E+00
   2.676000      0.0000000E+00
   2.688000      0.0000000E+00
   2.700000      0.0000000E+00
   2.712000      0.0000000E+00
   2.724000      0.0000000E+00
   2.736000      0.0000000E+00
   2.748000      0.0000000E+00
   2.760000      0.0000000E+00
   2.772000      0.0000000E+00
   2.784000      0.0000000E+00
   2.796000      0.0000000E+00
   2.808000      0.0000000E+00
   2.820000      0.0000000E+00
   2.832000      0.0000000E+00
   2.844000      0.0000000E+00
   2.856000      0.0000000E+00
   2.868000      0.0000000E+00
   2.880000      0.0000000E+00
   2.892000      0.0000000E+00
   2.904000      0.0000000E+00
   2.916000      0.0000000E+00
   2.928000      0.0000000E+00
   2.940000      0.0000000E+00
   2.952000      0.0000000E+00
   2.964000      0.0000000E+00
   2.976000      0.0000000E+00
   2.988000      0.0000000E+00
   3.000000      0.0000000E+00
   3.012000      0.0000000E+00
   3.024000      0.0000000E+00
   3.036000      0.0000000E+00
   3.048000      0.0000000E+00
   3.060000      0.0000000E+00
   3.072000      0.0000000E+00
   3.084000      0.0000000E+00
   3.096000      0.0000000E+00
   3.108000      0.0000000E+00
   3.120000      0.0000000E+00
   3.132000      0.0000000E+00
   3.144000      0.0000000E+00
   3.156000      0.0000000E+00
   3.168000      0.0000000E+00
   3.180000      0.0000000E+00
   3.192000      0.0000000E+00
   3.204000      0.0000000E+00
   3.216000      0.0000000E+00
   3.228000      0.0000000E+00
   3.240000      0.0000000E+00
   3.252000      0.0000000E+00
   3.264000      0.0000000E+00
   3.276000      0.0000000E+00
   3.288000      0.0000000E+00
   3.300000      0.0000000E+00
   3.312000      0.0000000E+00
   3.324000      0.0000000E+00
   3.336000      0.0000000E+00
   3.348000      0.0000000E+00
   3.360000      0.0000000E+00
   3.372000      0.0000000E+00
   3.384000      0.0000000E+00
   3.396000      0.0000000E+00
   3.408000      0.0000000E+00
   3.420000      0.0000000E+00
   3.432000      0.0000000E+00
   3.444000      0.0000000E+00
   3.456000      0.0000000E+00
   3.468000      0.0000000E+00
   3.480000      0.0000000E+00
   3.492000      0.0000000E+00
   3.504000      0.0000000E+00
   3.516000      0.0000000E+00
   3.528000      0.0000000E+00
   3.540000      0.0000000E+00
   3.552000      0.0000000E+00
   3.564000      0.0000000E+00
   3.576000      0.0000000E+00
   3.588000      0.0000000E+00
   3.600000      0.0000000E+00
   3.612000      0.0000000E+00
   3.624000      0.0000000E+00
   3.636000      0.0000000E+00
   3.648000      0.0000000E+00
   3.660000      0.0000000E+00
   3.672000      0.0000000E+00
   3.684000      0.0000000E+00
   3.696000      0.0000000E+00
   3.708000      0.0000000E+00
   3.720000      0.0000000E+00
   3.732000      0.0000000E+00
   3.744000      0.0000000E+00
   3.756000      0.0000000E+00
   3.768000      0.0000000E+00
   3.780000      0.0000000E+00
   3.792000      0.0000000E+00
   3.804000      0.0000000E+00
   3.816000      0.0000000E+00
   3.828000      0.0000000E+00
   3.840000      0.0000000E+00
   3.852000      0.0000000E+00
   3.864000      0.0000000E+00
   3.876000      0.0000000E+00
   3.888000      0.0000000E+00
   3.900000      0.0000000E+00
   3.912000      0.0000000E+00
   3.924000      0.0000000E+00
   3.936000      0.0000000E+00
   3.948000      0.0000000E+00
   3.960000      0.0000000E+00
   3.972000      0.0000000E+00
   3.984000      0.0000000E+00
   3.996000      0.0000000E+00
   4.008000      0.0000000E+00
   4.020000      0.0000000E+00
   4.032000      0.0000000E+00
   4.044000      0.0000000E+00
   4.056000      0.0000000E+00
   4.068000      0.0000000E+00
   4.080000      0.0000000E+00
   4.092000      0.0000000E+00
   4.104000      0.0000000E+00
   4.116000      0.0000000E+00
   4.128000      0.0000000E+00
   4.140000      0.0000000E+00
   4.152000      0.0000000E+00
   4.164000      0.0000000E+00
   4.176000      0.0000000E+00
   4.188000      0.0000000E+00
   4.200000      0.0000000E+00
   4.212000      0.0000000E+00
   4.224000      0.0000000E+00
   4.236000      0.0000000E+00
   4.248000      0.0000000E+00
   4.260000      0.0000000E+00
   4.272000      0.0000000E+00
   4.284000      0.0000000E+00
   4.296000      0.0000000E+00
   4.308000      0.0000000E+00
   4.320000      0.0000000E+00
   4.332000      0.0000000E+00
   4.344000      0.0000000E+00
   4.356000      0.0000000E+00
   4.368000      0.0000000E+00
   4.380000      0.0000000E+00
   4.392000      0.0000000E+00
   4.404000      0.0000000E+00
   4.416000      0.0000000E+00
   4.428000      0.0000000E+00
   4.440000      0.0000000E+00
   4.452000      0.0000000E+00
   4.464000      0.0000000E+00
   4.476000      0.0000000E+00
   4.488000      0.0000000E+00
   4.500000      0.0000000E+00
   4.512000      0.0000000E+00
   4.524000      0.0000000E+00
   4.536000      0.0000000E+00
   4.548000      0.0000000E+00
   4.560000      0.0000000E+00
   4.572000      0.0000000E+00
   4.584000      0.0000000E+00
   4.596000      0.0000000E+00
   4.608000      0.0000000E+00
   4.620000      0.0000000E+00
   4.632000      0.0000000E+00
   4.644000      0.0000000E+00
   4.656000      0.0000000E+00
   4.668000      0.0000000E+00
   4.680000      0.0000000E+00
   4.692000      0.0000000E+00
   4.704000      0.0000000E+00
   4.716000      0.0000000E+00
   4.728000      0.0000000E+00
   4.740000      0.0000000E+00
   4.752000      0.0000000E+00
   4.764000      0.0000000E+00
   4.776000      0.0000000E+00
   4.788000      0.0000000E+00
   4.800000      0.0000000E+00
   4.812000      0.0000000E+00
   4.824000      0.0000000E+00
   4.836000      0.0000000E+00
   4.848000      0.0000000E+00
   4.860000      2.8145971E-38
   4.872000      9.8102159E-38
   4.884000      1.6871237E-37
   4.896000      2.3980499E-37
   4.908000      3.1091939E-37
   4.920000      3.2982541E-37
   4.932000      2.7758557E-37
   4.944000      1.5804545E-37
   4.956000      0.0000000E+00
   4.968000     -1.6033193E-37
   4.980000     -2.8054098E-37
   4.992000     -3.3458622E-37
   5.004000     -3.2086569E-37
   5.016000     -2.5875400E-37
   5.028000     -1.9649924E-37
   5.040000     -1.3478136E-37
   5.052000     -7.2004382E-38
   5.064000     -4.2187110E-38
   5.076000      0.0000000E+00
   5.088000      3.0982802E-38
   5.100000      6.6498703E-38
   5.112000      1.0335516E-37
   5.124000      1.3221123E-37
   5.136000      1.5839461E-37
   5.148000      1.8666665E-37
   5.160000      1.4975716E-37
   5.172000      4.5498023E-38
   5.184000     -1.0079466E-37
   5.196000     -2.4981430E-37
   5.208000     -3.3985837E-37
   5.220000     -3.0624167E-37
   5.232000     -7.4203159E-38
   5.244000      3.1715003E-37
   5.256000      8.0736934E-37
   5.268000      1.2967373E-36
   5.280000      1.3023269E-36
   5.292000      7.4721826E-37
   5.304000     -2.7470575E-37
   5.316000     -1.5416305E-36
   5.328000     -2.6883491E-36
   5.340000     -3.2488930E-36
   5.352000     -2.8490610E-36
   5.364000     -1.4079551E-36
   5.376000      5.9089335E-37
   5.388000      2.6422380E-36
   5.400000      4.1532162E-36
   5.412000      4.5730985E-36
   5.424000      3.7232065E-36
   5.436000      1.6664247E-36
   5.448000     -1.2150537E-36
   5.460000     -4.2611182E-36
   5.472000     -6.5916843E-36
   5.484000     -7.5062145E-36
   5.496000     -6.4525363E-36
   5.508000     -3.1547968E-36
   5.520000      2.2339727E-36
   5.532000      9.1572172E-36
   5.544000      1.6834332E-35
   5.556000      2.4437870E-35
   5.568000      3.1047285E-35
   5.580000      3.5877454E-35
   5.592000      3.8178108E-35
   5.604000      3.7220203E-35
   5.616000      3.2442304E-35
   5.628000      2.3287229E-35
   5.640000      9.3273597E-36
   5.652000     -9.6560913E-36
   5.664000     -3.3426677E-35
   5.676000     -6.0918405E-35
   5.688000     -8.9980023E-35
   5.700000     -1.1731176E-34
   5.712000     -1.3861804E-34
   5.724000     -1.4934229E-34
   5.736000     -1.4482740E-34
   5.748000     -1.2145481E-34
   5.760000     -7.6962984E-35
   5.772000     -1.1430099E-35
   5.784000      7.3060475E-35
   5.796000      1.7180101E-34
   5.808000      2.7753114E-34
   5.820000      3.8061072E-34
   5.832000      4.6941962E-34
   5.844000      5.3086629E-34
   5.856000      5.5130644E-34
   5.868000      5.1773161E-34
   5.880000      4.1919042E-34
   5.892000      2.4837312E-34
   5.904000      3.9889207E-36
   5.916000     -3.0768048E-34
   5.928000     -6.7097222E-34
   5.940000     -1.0602477E-33
   5.952000     -1.4396353E-33
   5.964000     -1.7642179E-33
   5.976000     -1.9826141E-33
   5.988000     -2.0410182E-33
   6.000000     -1.8887347E-33
   6.012000     -1.4848149E-33
   6.024000     -8.0568704E-34
   6.036000      1.4738103E-34
   6.048000      1.3415164E-33
   6.060000      2.7072300E-33
   6.072000      4.1362921E-33
   6.084000      5.4834464E-33
   6.096000      6.5729221E-33
   6.108000      7.2102597E-33
   6.120000      7.1995209E-33
   6.132000      6.3655613E-33
   6.144000      4.5799570E-33
   6.156000      1.7887468E-33
   6.168000     -1.9607643E-33
   6.180000     -6.4975076E-33
   6.192000     -1.1512197E-32
   6.204000     -1.6554828E-32
   6.216000     -2.1047691E-32
   6.228000     -2.4316720E-32
   6.240000     -2.5642722E-32
   6.252000     -2.4332057E-32
   6.264000     -1.9804342E-32
   6.276000     -1.1691656E-32
   6.288000      5.8985273E-35
   6.300000      1.5090597E-32
   6.312000      3.2562269E-32
   6.324000      5.1110253E-32
   6.336000      6.8858996E-32
   6.348000      8.3494635E-32
   6.360000      9.2410001E-32
   6.372000      9.2924351E-32
   6.384000      8.2573235E-32
   6.396000      5.9454847E-32
   6.408000      2.2608824E-32
   6.420000     -2.7606670E-32
   6.432000     -8.9182934E-32
   6.444000     -1.5822402E-31
   6.456000     -2.2885855E-31
   6.468000     -2.9335129E-31
   6.480000     -3.4245752E-31
   6.492000     -3.6604725E-31
   6.504000     -3.5400468E-31
   6.516000     -2.9737748E-31
   6.528000     -1.8971674E-31
   6.540000     -2.8510381E-32
   6.552000      1.8342375E-31
   6.564000      4.3675135E-31
   6.576000      7.1482992E-31
   6.588000      9.9350704E-31
   6.600000      1.2416933E-30
   6.612000      1.4228581E-30
   6.624000      1.4975365E-30
   6.636000      1.4268475E-30
   6.648000      1.1769175E-30
   6.660000      7.2397258E-31
   6.672000      5.9729613E-32
   6.684000     -8.0341672E-31
   6.696000     -1.8280227E-30
   6.708000     -2.9487304E-30
   6.720000     -4.0716171E-30
   6.732000     -5.0764237E-30
   6.744000     -5.8221931E-30
   6.756000     -6.1566240E-30
   6.768000     -5.9291393E-30
   6.780000     -5.0072753E-30
   6.792000     -3.2955377E-30
   6.804000     -7.5540446E-31
   6.816000      2.5753259E-30
   6.828000      6.5660210E-30
   6.840000      1.0981999E-29
   6.852000      1.5481159E-29
   6.864000      1.9620821E-29
   6.876000      2.2876745E-29
   6.888000      2.4675481E-29
   6.900000      2.4440183E-29
   6.912000      2.1648640E-29
   6.924000      1.5900742E-29
   6.936000      6.9909226E-30
   6.948000     -5.0205345E-30
   6.960000     -1.9744774E-29
   6.972000     -3.6418782E-29
   6.984000     -5.3885817E-29
   6.996000     -7.0610358E-29
   7.008000     -8.4734694E-29
   7.020000     -9.4181904E-29
   7.032000     -9.6806520E-29
   7.044000     -9.0589630E-29
   7.056000     -7.3870181E-29
   7.068000     -4.5598332E-29
   7.080000     -5.5914847E-30
   7.092000      4.5231726E-29
   7.104000      1.0466774E-28
   7.116000      1.6912496E-28
   7.128000      2.3363061E-28
   7.140000      2.9197389E-28
   7.152000      3.3700358E-28
   7.164000      3.6108911E-28
   7.176000      3.5673868E-28
   7.188000      3.1735283E-28
   7.200000      2.3807227E-28
   7.212000      1.1666142E-28
   7.224000     -4.5649258E-29
   7.236000     -2.4345233E-28
   7.248000     -4.6668244E-28
   7.260000     -7.0046501E-28
   7.272000     -9.2538575E-28
   7.284000     -1.1182529E-27
   7.296000     -1.2533932E-27
   7.308000     -1.3044834E-27
   7.320000     -1.2468658E-27
   7.332000     -1.0602417E-27
   7.344000     -7.3157417E-28
   7.356000     -2.5797810E-28
   7.368000      3.5067961E-28
   7.380000      1.0697743E-27
   7.392000      1.8588356E-27
   7.404000      2.6616829E-27
   7.416000      3.4080463E-27
   7.428000      4.0168508E-27
   7.440000      4.4012302E-27
   7.452000      4.4751937E-27
   7.464000      4.1616862E-27
   7.476000      3.4016175E-27
   7.488000      2.1632317E-27
   7.500000      4.5104129E-28
   7.512000     -1.6865900E-27
   7.524000     -4.1522033E-27
   7.536000     -6.7973186E-27
   7.548000     -9.4247231E-27
   7.560000     -1.1795660E-26
   7.572000     -1.3642317E-26
   7.584000     -1.4685629E-26
   7.596000     -1.4657869E-26
   7.608000     -1.3329067E-26
   7.620000     -1.0535623E-26
   7.632000     -6.2090321E-27
   7.644000     -4.0216670E-28
   7.656000      6.6897708E-27
   7.668000      1.4716587E-26
   7.680000      2.3171601E-26
   7.692000      3.1403751E-26
   7.704000      3.8645014E-26
   7.716000      4.4053866E-26
   7.728000      4.6774213E-26
   7.740000      4.6007687E-26
   7.752000      4.1095653E-26
   7.764000      3.1605657E-26
   7.776000      1.7415528E-26
   7.788000     -1.2126752E-27
   7.800000     -2.3577546E-26
   7.812000     -4.8510551E-26
   7.824000     -7.4383544E-26
   7.836000     -9.9157961E-26
   7.848000     -1.2047964E-25
   7.860000     -1.3581994E-25
   7.872000     -1.4266016E-25
   7.884000     -1.3871137E-25
   7.896000     -1.2215777E-25
   7.908000     -9.1906764E-26
   7.920000     -4.7825370E-26
   7.932000      9.0602285E-27
   7.944000      7.6426367E-26
   7.956000      1.5059881E-25
   7.968000      2.2660569E-25
   7.980000      2.9835259E-25
   7.992000      3.5892755E-25
   8.004000      4.0103531E-25
   8.016000      4.1754689E-25
   8.028000      4.0214016E-25
   8.040000      3.4999291E-25
   8.052000      2.5847893E-25
   8.064000      1.2780783E-25
   8.076000     -3.8456652E-26
   8.088000     -2.3306743E-25
   8.100000     -4.4501729E-25
   8.112000     -6.5976806E-25
   8.124000     -8.5982358E-25
   8.136000     -1.0256606E-24
   8.148000     -1.1370048E-24
   8.160000     -1.1744070E-24
   8.172000     -1.1210389E-24
   8.184000     -9.6459811E-25
   8.196000     -6.9917782E-25
   8.208000     -3.2693689E-25
   8.220000      1.4060855E-25
   8.232000      6.8185059E-25
   8.244000      1.2650752E-24
   8.256000      1.8493008E-24
   8.268000      2.3860510E-24
   8.280000      2.8220811E-24
   8.292000      3.1029964E-24
   8.304000      3.1776193E-24
   8.316000      3.0028621E-24
   8.328000      2.5487924E-24
   8.340000      1.8034867E-24
   8.352000      7.7723068E-25
   8.364000     -4.9440999E-25
   8.376000     -1.9491047E-24
   8.388000     -3.4982672E-24
   8.400000     -5.0298671E-24
   8.412000     -6.4137066E-24
   8.424000     -7.5091583E-24
   8.436000     -8.1751304E-24
   8.448000     -8.2818152E-24
   8.460000     -7.7235257E-24
   8.472000     -6.4317463E-24
   8.484000     -4.3873071E-24
   8.496000     -1.6305165E-24
   8.508000      1.7319640E-24
   8.520000      5.5246481E-24
   8.532000      9.5061210E-24
   8.544000      1.3377989E-23
   8.556000      1.6800159E-23
   8.568000      1.9412242E-23
   8.580000      2.0860325E-23
   8.592000      2.0827769E-23
   8.604000      1.9068084E-23
   8.616000      1.5437494E-23
   8.628000      9.9243380E-24
   8.640000      2.6723363E-24
   8.652000     -6.0053669E-24
   8.664000     -1.5624056E-23
   8.676000     -2.5539435E-23
   8.688000     -3.4975104E-23
   8.700000     -4.3065813E-23
   8.712000     -4.8915444E-23
   8.724000     -5.1667316E-23
   8.736000     -5.0582866E-23
   8.748000     -4.5123443E-23
   8.760000     -3.5028785E-23
   8.772000     -2.0384923E-23
   8.784000     -1.6740005E-24
   8.796000      2.0201265E-23
   8.808000      4.3924772E-23
   8.820000      6.7810515E-23
   8.832000      8.9884698E-23
   8.844000      1.0800577E-22
   8.856000      1.2001859E-22
   8.868000      1.2393491E-22
   8.880000      1.1812932E-22
   8.892000      1.0153636E-22
   8.904000      7.3831871E-23
   8.916000      3.5580776E-23
   8.928000     -1.1667189E-23
   8.940000     -6.5350487E-23
   8.952000     -1.2195122E-22
   8.964000     -1.7714173E-22
   8.976000     -2.2602470E-22
   8.988000     -2.6346142E-22
   9.000000     -2.8447412E-22
   9.012000     -2.8470036E-22
   9.024000     -2.6086767E-22
   9.036000     -2.1125147E-22
   9.048000     -1.3607319E-22
   9.060000     -3.7794528E-23
   9.072000      7.8735210E-23
   9.084000      2.0631554E-22
   9.096000      3.3564239E-22
   9.108000      4.5577995E-22
   9.120000      5.5485265E-22
   9.132000      6.2093314E-22
   9.144000      6.4308163E-22
   9.156000      6.1246898E-22
   9.168000      5.2350057E-22
   9.180000      3.7484080E-22
   9.192000      1.7023211E-22
   9.204000     -8.0998774E-23
   9.216000     -3.6384451E-22
   9.228000     -6.5800875E-22
   9.240000     -9.3883364E-22
   9.252000     -1.1787725E-21
   9.264000     -1.3493700E-21
   9.276000     -1.4236616E-21
   9.288000     -1.3788516E-21
   9.300000     -1.1990800E-21
   9.312000     -8.7804889E-22
   9.324000     -4.2125129E-22
   9.336000      1.5246514E-22
   9.348000      8.1025390E-22
   9.360000      1.5057623E-21
   9.372000      2.1809180E-21
   9.384000      2.7690798E-21
   9.396000      3.1995146E-21
   9.408000      3.4030408E-21
   9.420000      3.3185497E-21
   9.432000      2.8999815E-21
   9.444000      2.1232385E-21
   9.456000      9.9239762E-22
   9.468000     -4.5543093E-22
   9.480000     -2.1472712E-21
   9.492000     -3.9740911E-21
   9.504000     -5.7937414E-21
   9.516000     -7.4373392E-21
   9.528000     -8.7191614E-21
   9.540000     -9.4498325E-21
   9.552000     -9.4522704E-21
   9.564000     -8.5795205E-21
   9.576000     -6.7332853E-21
   9.588000     -3.8817203E-21
   9.600000     -7.4825154E-23
   9.612000      4.5442896E-21
   9.624000      9.7339601E-21
   9.636000      1.5155867E-20
   9.648000      2.0385415E-20
   9.660000      2.4931290E-20
   9.672000      2.8264173E-20
   9.684000      2.9853927E-20
   9.696000      2.9213638E-20
   9.708000      2.5948182E-20
   9.720000      1.9804118E-20
   9.732000      1.0717063E-20
   9.744000     -1.1477029E-21
   9.756000     -1.5365920E-20
   9.768000     -3.1240641E-20
   9.780000     -4.7807941E-20
   9.792000     -6.3865077E-20
   9.804000     -7.8022616E-20
   9.816000     -8.8780688E-20
   9.828000     -9.4627414E-20
   9.840000     -9.4155688E-20
   9.852000     -8.6192259E-20
   9.864000     -6.9931051E-20
   9.876000     -4.5061371E-20
   9.888000     -1.1879950E-20
   9.900000      2.8624362E-20
   9.912000      7.4724304E-20
   9.924000      1.2395631E-19
   9.936000      1.7317880E-19
   9.948000      2.1869156E-19
   9.960000      2.5641702E-19
   9.972000      2.8214027E-19
   9.984000      2.9179910E-19
   9.996000      2.8181056E-19
   10.00800      2.4941584E-19
   10.02000      1.9302085E-19
   10.03200      1.1250670E-19
   10.04400      9.4828220E-21
   10.05600     -1.1254488E-19
   10.06800     -2.4811629E-19
   10.08000     -3.8989086E-19
   10.09200     -5.2886801E-19
   10.10400     -6.5476035E-19
   10.11600     -7.5651742E-19
   10.12800     -8.2298365E-19
   10.14000     -8.4366549E-19
   10.15200     -8.0957035E-19
   10.16400     -7.1406635E-19
   10.17600     -5.5370974E-19
   10.18800     -3.2897443E-19
   10.20000     -4.4820113E-20
   10.21200      2.8896324E-19
   10.22400      6.5769125E-19
   10.23600      1.0420452E-18
   10.24800      1.4186848E-18
   10.26000      1.7612210E-18
   10.27200      2.0415349E-18
   10.28400      2.2314024E-18
   10.29600      2.3043546E-18
   10.30800      2.2376880E-18
   10.32000      2.0145068E-18
   10.33200      1.6256687E-18
   10.34400      1.0714938E-18
   10.35600      3.6309072E-19
   10.36800     -4.7683359E-19
   10.38000     -1.4138056E-18
   10.39200     -2.4021509E-18
   10.40400     -3.3863550E-18
   10.41600     -4.3032343E-18
   10.42800     -5.0848889E-18
   10.44000     -5.6623425E-18
   10.45200     -5.9697373E-18
   10.46400     -5.9488898E-18
   10.47600     -5.5539624E-18
   10.48800     -4.7559899E-18
   10.50000     -3.5469459E-18
   10.51200     -1.9430630E-18
   10.52400      1.2909980E-20
   10.53600      2.2507661E-18
   10.54800      4.6734456E-18
   10.56000      7.1593342E-18
   10.57200      9.5663355E-18
   10.58400      1.1737689E-17
   10.59600      1.3509400E-17
   10.60800      1.4719064E-17
   10.62000      1.5215706E-17
   10.63200      1.4870246E-17
   10.64400      1.3585973E-17
   10.65600      1.1308538E-17
   10.66800      8.0347329E-18
   10.68000      3.8194643E-18
   10.69200     -1.2197049E-18
   10.70400     -6.9010239E-18
   10.71600     -1.2980481E-17
   10.72800     -1.9157526E-17
   10.74000     -2.5084729E-17
   10.75200     -3.0381371E-17
   10.76400     -3.4650695E-17
   10.77600     -3.7500339E-17
   10.78800     -3.8565271E-17
   10.80000     -3.7532235E-17
   10.81200     -3.4164634E-17
   10.82400     -2.8326512E-17
   10.83600     -2.0004189E-17
   10.84800     -9.3240874E-18
   10.86000      3.4347699E-18
   10.87200      1.7835028E-17
   10.88400      3.3283243E-17
   10.89600      4.9041163E-17
   10.90800      6.4246662E-17
   10.92000      7.7944614E-17
   10.93200      8.9127447E-17
   10.94400      9.6784466E-17
   10.95600      9.9958702E-17
   10.96800      9.7809072E-17
   10.98000      8.9675252E-17
   10.99200      7.5142119E-17
   11.00400      5.4099974E-17
   11.01600      2.6796582E-17
   11.02800     -6.1231871E-18
   11.04000     -4.3594291E-17
   11.05200     -8.4128940E-17
   11.06400     -1.2583782E-16
   11.07600     -1.6647775E-16
   11.08800     -2.0352701E-16
   11.10000     -2.3428860E-16
   11.11200     -2.5601981E-16
   11.12400     -2.6608449E-16
   11.13600     -2.6212337E-16
   11.14800     -2.4223448E-16
   11.16000     -2.0515539E-16
   11.17200     -1.5043664E-16
   11.18400     -7.8594215E-17
   11.19600      8.7704968E-18
   11.20800      1.0889649E-16
   11.22000      2.1784581E-16
   11.23200      3.3055347E-16
   11.24400      4.4095238E-16
   11.25600      5.4217764E-16
   11.26800      6.2685065E-16
   11.28000      6.8743865E-16
   11.29200      7.1667982E-16
   11.30400      7.0805840E-16
   11.31600      6.5630940E-16
   11.32800      5.5792673E-16
   11.34000      4.1164396E-16
   11.35200      2.1885496E-16
   11.36400     -1.6060835E-17
   11.37600     -2.8554367E-16
   11.38800     -5.7882071E-16
   11.40000     -8.8206284E-16
   11.41200     -1.1787501E-15
   11.42400     -1.4502568E-15
   11.43600     -1.6766517E-15
   11.44800     -1.8377004E-15
   11.46000     -1.9140368E-15
   11.47200     -1.8884589E-15