 -0.1200000      0.0000000E+00
 -0.1080000      0.0000000E+00
 -9.6000001E-02  0.0000000E+00
 -8.3999999E-02  0.0000000E+00
 -7.1999997E-02  0.0000000E+00
 -5.9999999E-02  0.0000000E+00
 -4.8000000E-02  0.0000000E+00
 -3.5999998E-02  0.0000000E+00
 -2.4000000E-02  0.0000000E+00
 -1.2000000E-02  0.0000000E+00
  6.9388939E-18  0.0000000E+00
  1.2000000E-02  0.0000000E+00
  2.4000000E-02  0.0000000E+00
  3.5999998E-02  0.0000000E+00
  4.8000000E-02  0.0000000E+00
  5.9999999E-02  0.0000000E+00
  7.1999997E-02  0.0000000E+00
  8.3999999E-02  0.0000000E+00
  9.6000001E-02  0.0000000E+00
  0.1080000      0.0000000E+00
  0.1200000      0.0000000E+00
  0.1320000      0.0000000E+00
  0.1440000      0.0000000E+00
  0.1560000      0.0000000E+00
  0.1680000      0.0000000E+00
  0.1800000      0.0000000E+00
  0.1920000      0.0000000E+00
  0.2040000      0.0000000E+00
  0.2160000      0.0000000E+00
  0.2280000      0.0000000E+00
  0.2400000      0.0000000E+00
  0.2520000      0.0000000E+00
  0.2640000      0.0000000E+00
  0.2760000      0.0000000E+00
  0.2880000      0.0000000E+00
  0.3000000      0.0000000E+00
  0.3120000      0.0000000E+00
  0.3240000      0.0000000E+00
  0.3360000      0.0000000E+00
  0.3480000      0.0000000E+00
  0.3600000      0.0000000E+00
  0.3720000      0.0000000E+00
  0.3840000      0.0000000E+00
  0.3960000      0.0000000E+00
  0.4080000      0.0000000E+00
  0.4200000      0.0000000E+00
  0.4320000      0.0000000E+00
  0.4440000      0.0000000E+00
  0.4560000      0.0000000E+00
  0.4680000      0.0000000E+00
  0.4800000      0.0000000E+00
  0.4920000      0.0000000E+00
  0.5040000      0.0000000E+00
  0.5160000      0.0000000E+00
  0.5280000      0.0000000E+00
  0.5400000      0.0000000E+00
  0.5520000      0.0000000E+00
  0.5640000      0.0000000E+00
  0.5760000      0.0000000E+00
  0.5880000      0.0000000E+00
  0.6000000      0.0000000E+00
  0.6120000      0.0000000E+00
  0.6240000      0.0000000E+00
  0.6360000      0.0000000E+00
  0.6480000      0.0000000E+00
  0.6600000      0.0000000E+00
  0.6720000      0.0000000E+00
  0.6840000      0.0000000E+00
  0.6960000      0.0000000E+00
  0.7080000      0.0000000E+00
  0.7200000      0.0000000E+00
  0.7320000      0.0000000E+00
  0.7440000      0.0000000E+00
  0.7560000      0.0000000E+00
  0.7680000      0.0000000E+00
  0.7800000      0.0000000E+00
  0.7920000      0.0000000E+00
  0.8040000      0.0000000E+00
  0.8160000      0.0000000E+00
  0.8280000      0.0000000E+00
  0.8400000      0.0000000E+00
  0.8520000      0.0000000E+00
  0.8640000      0.0000000E+00
  0.8760000      0.0000000E+00
  0.8880000      0.0000000E+00
  0.9000000      0.0000000E+00
  0.9120000      0.0000000E+00
  0.9240000      0.0000000E+00
  0.9360000      0.0000000E+00
  0.9480000      0.0000000E+00
  0.9600000      0.0000000E+00
  0.9720000      0.0000000E+00
  0.9840000      0.0000000E+00
  0.9960000      0.0000000E+00
   1.008000      0.0000000E+00
   1.020000      0.0000000E+00
   1.032000      0.0000000E+00
   1.044000      0.0000000E+00
   1.056000      0.0000000E+00
   1.068000      0.0000000E+00
   1.080000      0.0000000E+00
   1.092000      0.0000000E+00
   1.104000      0.0000000E+00
   1.116000      0.0000000E+00
   1.128000      0.0000000E+00
   1.140000      0.0000000E+00
   1.152000      0.0000000E+00
   1.164000      0.0000000E+00
   1.176000      0.0000000E+00
   1.188000      0.0000000E+00
   1.200000      0.0000000E+00
   1.212000      0.0000000E+00
   1.224000      0.0000000E+00
   1.236000      0.0000000E+00
   1.248000      0.0000000E+00
   1.260000      0.0000000E+00
   1.272000      0.0000000E+00
   1.284000      0.0000000E+00
   1.296000      0.0000000E+00
   1.308000      0.0000000E+00
   1.320000      0.0000000E+00
   1.332000      0.0000000E+00
   1.344000      0.0000000E+00
   1.356000      0.0000000E+00
   1.368000      0.0000000E+00
   1.380000      0.0000000E+00
   1.392000      0.0000000E+00
   1.404000      0.0000000E+00
   1.416000      0.0000000E+00
   1.428000      0.0000000E+00
   1.440000      0.0000000E+00
   1.452000      0.0000000E+00
   1.464000      0.0000000E+00
   1.476000      0.0000000E+00
   1.488000      0.0000000E+00
   1.500000      0.0000000E+00
   1.512000      0.0000000E+00
   1.524000      0.0000000E+00
   1.536000      0.0000000E+00
   1.548000      0.0000000E+00
   1.560000      0.0000000E+00
   1.572000      0.0000000E+00
   1.584000      0.0000000E+00
   1.596000      0.0000000E+00
   1.608000      0.0000000E+00
   1.620000      0.0000000E+00
   1.632000      0.0000000E+00
   1.644000      0.0000000E+00
   1.656000      0.0000000E+00
   1.668000      0.0000000E+00
   1.680000      0.0000000E+00
   1.692000      0.0000000E+00
   1.704000      0.0000000E+00
   1.716000      0.0000000E+00
   1.728000      0.0000000E+00
   1.740000      0.0000000E+00
   1.752000      0.0000000E+00
   1.764000      0.0000000E+00
   1.776000      0.0000000E+00
   1.788000      0.0000000E+00
   1.800000      0.0000000E+00
   1.812000      0.0000000E+00
   1.824000      0.0000000E+00
   1.836000      0.0000000E+00
   1.848000      0.0000000E+00
   1.860000      0.0000000E+00
   1.872000      0.0000000E+00
   1.884000      0.0000000E+00
   1.896000      0.0000000E+00
   1.908000      0.0000000E+00
   1.920000      0.0000000E+00
   1.932000      0.0000000E+00
   1.944000      0.0000000E+00
   1.956000      0.0000000E+00
   1.968000      0.0000000E+00
   1.980000      0.0000000E+00
   1.992000      0.0000000E+00
   2.004000      0.0000000E+00
   2.016000      0.0000000E+00
   2.028000      0.0000000E+00
   2.040000      0.0000000E+00
   2.052000      0.0000000E+00
   2.064000      0.0000000E+00
   2.076000      0.0000000E+00
   2.088000      0.0000000E+00
   2.100000      0.0000000E+00
   2.112000      0.0000000E+00
   2.124000      0.0000000E+00
   2.136000      0.0000000E+00
   2.148000      0.0000000E+00
   2.160000      0.0000000E+00
   2.172000      0.0000000E+00
   2.184000      0.0000000E+00
   2.196000      0.0000000E+00
   2.208000      0.0000000E+00
   2.220000      0.0000000E+00
   2.232000     -2.2693471E-38
   2.244000     -4.1172186E-38
   2.256000     -2.9358840E-38
   2.268000      5.2480769E-38
   2.280000      1.6367549E-37
   2.292000      3.3156520E-37
   2.304000      5.4529837E-37
   2.316000      7.0032140E-37
   2.328000      6.7240735E-37
   2.340000      4.0238171E-37
   2.352000     -1.7221275E-37
   2.364000     -1.1044446E-36
   2.376000     -2.2092770E-36
   2.388000     -3.4082011E-36
   2.400000     -4.2058573E-36
   2.412000     -4.4138112E-36
   2.424000     -3.9349996E-36
   2.436000     -1.9509868E-36
   2.448000      1.5630199E-36
   2.460000      6.1780716E-36
   2.472000      1.1392004E-35
   2.484000      1.6098189E-35
   2.496000      1.9044771E-35
   2.508000      1.8895664E-35
   2.520000      1.4447427E-35
   2.532000      4.9508871E-36
   2.544000     -9.7960952E-36
   2.556000     -2.8489578E-35
   2.568000     -4.8927444E-35
   2.580000     -6.8077458E-35
   2.592000     -8.1643467E-35
   2.604000     -8.4648427E-35
   2.616000     -7.1790614E-35
   2.628000     -3.8469654E-35
   2.640000      1.7957200E-35
   2.652000      9.6660636E-35
   2.664000      1.9145442E-34
   2.676000      2.9008239E-34
   2.688000      3.7368281E-34
   2.700000      4.1789343E-34
   2.712000      3.9572411E-34
   2.724000      2.8224402E-34
   2.736000      6.0586500E-35
   2.748000     -2.7106170E-34
   2.760000     -6.9277558E-34
   2.772000     -1.1579399E-33
   2.784000     -1.5915598E-33
   2.796000     -1.8935331E-33
   2.808000     -1.9481811E-33
   2.820000     -1.6407128E-33
   2.832000     -8.8018179E-34
   2.844000      3.7293275E-34
   2.856000      2.0780755E-33
   2.868000      4.0901278E-33
   2.880000      6.1454936E-33
   2.892000      7.8656169E-33
   2.904000      8.7840527E-33
   2.916000      8.4009598E-33
   2.928000      6.2651740E-33
   2.940000      2.0788405E-33
   2.952000     -4.1865566E-33
   2.964000     -1.2180212E-32
   2.976000     -2.1090972E-32
   2.988000     -2.9621279E-32
   3.000000     -3.6041615E-32
   3.012000     -3.8345443E-32
   3.024000     -3.4513463E-32
   3.036000     -2.2879126E-32
   3.048000     -2.5658064E-33
   3.060000      2.6057739E-32
   3.072000      6.0979757E-32
   3.084000      9.8298764E-32
   3.096000      1.3222717E-31
   3.108000      1.5543485E-31
   3.120000      1.5979341E-31
   3.132000      1.3753117E-31
   3.144000      8.2739785E-32
   3.156000     -6.9097160E-33
   3.168000     -1.2846944E-31
   3.180000     -2.7233994E-31
   3.192000     -4.2157107E-31
   3.204000     -5.5219750E-31
   3.216000     -6.3491224E-31
   3.228000     -6.3825525E-31
   3.240000     -5.3329104E-31
   3.252000     -2.9948114E-31
   3.264000      6.8850350E-32
   3.276000      5.5636496E-31
   3.288000      1.1220278E-30
   3.300000      1.6971850E-30
   3.312000      2.1876524E-30
   3.324000      2.4808094E-30
   3.336000      2.4582004E-30
   3.348000      2.0133984E-30
   3.360000      1.0739455E-30
   3.372000     -3.7489042E-31
   3.384000     -2.2678532E-30
   3.396000     -4.4431065E-30
   3.408000     -6.6359316E-30
   3.420000     -8.4871843E-30
   3.432000     -9.5699948E-30
   3.444000     -9.4364225E-30
   3.456000     -7.6831071E-30
   3.468000     -4.0316932E-30
   3.480000      1.5838449E-30
   3.492000      8.9344010E-30
   3.504000      1.7431854E-29
   3.516000      2.6100145E-29
   3.528000      3.3597261E-29
   3.540000      3.8301309E-29
   3.552000      3.8468534E-29
   3.564000      3.2462503E-29
   3.576000      1.9043005E-29
   3.588000     -2.3095043E-30
   3.600000     -3.1070700E-29
   3.612000     -6.5398400E-29
   3.624000     -1.0196352E-28
   3.636000     -1.3594386E-28
   3.648000     -1.6123365E-28
   3.660000     -1.7090788E-28
   3.672000     -1.5795723E-28
   3.684000     -1.1627665E-28
   3.696000     -4.1849907E-29
   3.708000      6.5972676E-29
   3.720000      2.0325196E-28
   3.732000      3.6047992E-28
   3.744000      5.2205355E-28
   3.756000      6.6641842E-28
   3.768000      7.6707267E-28
   3.780000      7.9456782E-28
   3.792000      7.1955222E-28
   3.804000      5.1678228E-28
   3.816000      1.6987895E-28
   3.828000     -3.2355960E-28
   3.840000     -9.4704302E-28
   3.852000     -1.6611764E-27
   3.864000     -2.4013562E-27
   3.876000     -3.0780141E-27
   3.888000     -3.5801747E-27
   3.900000     -3.7829089E-27
   3.912000     -3.5589421E-27
   3.924000     -2.7942204E-27
   3.936000     -1.4067009E-27
   3.948000      6.3301971E-28
   3.960000      3.2812438E-27
   3.972000      6.4034933E-27
   3.984000      9.7626498E-27
   3.996000      1.3016176E-26
   4.008000      1.5725506E-26
   4.020000      1.7380176E-26
   4.032000      1.7438100E-26
   4.044000      1.5381985E-26
   4.056000      1.0789751E-26
   4.068000      3.4145906E-27
   4.080000     -6.7321729E-27
   4.092000     -1.9304557E-26
   4.104000     -3.3562710E-26
   4.116000     -4.8343036E-26
   4.128000     -6.2069659E-26
   4.140000     -7.2817649E-26
   4.152000     -7.8435238E-26
   4.164000     -7.6727410E-26
   4.176000     -6.5696650E-26
   4.188000     -4.3828791E-26
   4.200000     -1.0403518E-26
   4.212000      3.4199277E-26
   4.224000      8.8233229E-26
   4.236000      1.4840017E-25
   4.248000      2.0978807E-25
   4.260000      2.6597155E-25
   4.272000      3.0930644E-25
   4.284000      3.3143653E-25
   4.296000      3.2401133E-25
   4.308000      2.7959106E-25
   4.320000      1.9268831E-25
   4.332000      6.0868797E-26
   4.344000     -1.1419140E-25
   4.356000     -3.2581447E-25
   4.368000     -5.6172976E-25
   4.380000     -8.0391765E-25
   4.392000     -1.0290086E-24
   4.404000     -1.2093311E-24
   4.416000     -1.3146533E-24
   4.428000     -1.3146098E-24
   4.440000     -1.1817275E-24
   4.452000     -8.9489042E-25
   4.464000     -4.4300165E-25
   4.476000      1.7147032E-25
   4.488000      9.2943385E-25
   4.500000      1.7930118E-24
   4.512000      2.7046832E-24
   4.524000      3.5881062E-24
   4.536000      4.3509268E-24
   4.548000      4.8897480E-24
   4.560000      5.0972910E-24
   4.572000      4.8715691E-24
   4.584000      4.1266840E-24
   4.596000      2.8046198E-24
   4.608000      8.8718660E-25
   4.620000     -1.5929327E-24
   4.632000     -4.5432219E-24
   4.644000     -7.8057234E-24
   4.656000     -1.1156046E-23
   4.668000     -1.4308092E-23
   4.680000     -1.6925421E-23
   4.692000     -1.8639702E-23
   4.704000     -1.9076305E-23
   4.716000     -1.7886381E-23
   4.728000     -1.4784120E-23
   4.740000     -9.5871205E-24
   4.752000     -2.2570399E-24
   4.764000      7.0629667E-24
   4.776000      1.8018064E-23
   4.788000      3.0023134E-23
   4.800000      4.2260134E-23
   4.812000      5.3695402E-23
   4.824000      6.3120068E-23
   4.836000      6.9215577E-23
   4.848000      7.0644507E-23
   4.860000      6.6164516E-23
   4.872000      5.4761058E-23
   4.884000      3.5791336E-23
   4.896000      9.1293965E-24
   4.908000     -2.4700352E-23
   4.920000     -6.4415895E-23
   4.932000     -1.0791254E-22
   4.944000     -1.5225585E-22
   4.956000     -1.9374678E-22
   4.968000     -2.2807067E-22
   4.980000     -2.5053581E-22
   4.992000     -2.5640153E-22
   5.004000     -2.4128718E-22
   5.016000     -2.0164374E-22
   5.028000     -1.3526029E-22
   5.040000     -4.1767519E-23
   5.052000      7.6907697E-23
   5.064000      2.1618883E-22
   5.076000      3.6865219E-22
   5.088000      5.2403831E-22
   5.100000      6.6951814E-22
   5.112000      7.9024733E-22
   5.124000      8.7022258E-22
   5.136000      8.9343049E-22
   5.148000      8.4524878E-22
   5.160000      7.1403272E-22
   5.172000      4.9278220E-22
   5.184000      1.8076050E-22
   5.196000     -2.1508996E-22
   5.208000     -6.7910372E-22
   5.220000     -1.1863901E-21
   5.232000     -1.7030306E-21
   5.244000     -2.1871047E-21
   5.256000     -2.5906210E-21
   5.268000     -2.8623767E-21
   5.280000     -2.9516797E-21
   5.292000     -2.8127865E-21
   5.304000     -2.4098168E-21
   5.316000     -1.7218122E-21
   5.328000     -7.4753403E-22
   5.340000      4.9046322E-22
   5.352000      1.9429748E-21
   5.364000      3.5329821E-21
   5.376000      5.1566104E-21
   5.388000      6.6865302E-21
   5.400000      7.9779744E-21
   5.412000      8.8773783E-21
   5.424000      9.2333874E-21
   5.436000      8.9097764E-21
   5.448000      7.7995498E-21
   5.460000      5.8392840E-21
   5.472000      3.0225606E-21
   5.484000     -5.8876771E-22
   5.496000     -4.8568019E-21
   5.508000     -9.5645723E-21
   5.520000     -1.4418862E-20
   5.532000     -1.9059678E-20
   5.544000     -2.3076825E-20
   5.556000     -2.6033468E-20
   5.568000     -2.7496046E-20
   5.580000     -2.7069280E-20
   5.592000     -2.4434360E-20
   5.604000     -1.9387881E-20
   5.616000     -1.1878577E-20
   5.628000     -2.0385911E-21
   5.640000      9.7940689E-21
   5.652000      2.3065188E-20
   5.664000      3.7008972E-20
   5.676000      5.0669811E-20
   5.688000      6.2942506E-20
   5.700000      7.2630943E-20
   5.712000      7.8523835E-20
   5.724000      7.9484690E-20
   5.736000      7.4551559E-20
   5.748000      6.3040656E-20
   5.760000      4.4646676E-20
   5.772000      1.9531755E-20
   5.784000     -1.1605554E-20
   5.796000     -4.7489790E-20
   5.808000     -8.6264372E-20
   5.820000     -1.2553015E-19
   5.832000     -1.6243085E-19
   5.844000     -1.9378708E-19
   5.856000     -2.1627705E-19
   5.868000     -2.2665827E-19
   5.880000     -2.2202107E-19
   5.892000     -2.0006026E-19
   5.904000     -1.5934863E-19
   5.916000     -9.9591867E-20
   5.928000     -2.1843908E-20
   5.940000      7.1340011E-20
   5.952000      1.7583385E-19
   5.964000      2.8597389E-19
   5.976000      3.9470864E-19
   5.988000      4.9387439E-19
   6.000000      5.7459646E-19
   6.012000      6.2780775E-19
   6.024000      6.4486758E-19
   6.036000      6.1825139E-19
   6.048000      5.4227479E-19
   6.060000      4.1380576E-19
   6.072000      2.3291281E-19
   6.084000      3.3933037E-21
   6.096000     -2.6687388E-19
   6.108000     -5.6580384E-19
   6.120000     -8.7725368E-19
   6.132000     -1.1814743E-18
   6.144000     -1.4558830E-18
   6.156000     -1.6761517E-18
   6.168000     -1.8175871E-18
   6.180000     -1.8567506E-18
   6.192000     -1.7732496E-18
   6.204000     -1.5516077E-18
   6.216000     -1.1831001E-18
   6.228000     -6.6743203E-19
   6.240000     -1.4131445E-20
   6.252000      7.5647688E-19
   6.264000      1.6128373E-18
   6.276000      2.5123752E-18
   6.288000      3.4024360E-18
   6.300000      4.2219997E-18
   6.312000      4.9041863E-18
   6.324000      5.3795120E-18
   6.336000      5.5798287E-18
   6.348000      5.4428083E-18
   6.360000      4.9168137E-18
   6.372000      3.9659332E-18
   6.384000      2.5749256E-18
   6.396000      7.5378229E-19
   6.408000     -1.4584015E-18
   6.420000     -3.9905902E-18
   6.432000     -6.7383320E-18
   6.444000     -9.5639838E-18
   6.456000     -1.2298942E-17
   6.468000     -1.4748122E-17
   6.480000     -1.6696915E-17
   6.492000     -1.7920681E-17
   6.504000     -1.8196791E-17
   6.516000     -1.7319058E-17
   6.528000     -1.5114190E-17
   6.540000     -1.1459730E-17
   6.552000     -6.3026799E-18
   6.564000      3.2220913E-19
   6.576000      8.2758006E-18
   6.588000      1.7301086E-17
   6.600000      2.7014513E-17
   6.612000      3.6903965E-17
   6.624000      4.6335084E-17
   6.636000      5.4567629E-17
   6.648000      6.0783045E-17
   6.660000      6.4124133E-17
   6.672000      6.3746793E-17
   6.684000      5.8882925E-17
   6.696000      4.8912533E-17
   6.708000      3.3441850E-17
   6.720000      1.2382851E-17
   6.732000     -1.3971572E-17
   6.744000     -4.4883551E-17
   6.756000     -7.9125053E-17
   6.768000     -1.1495942E-16
   6.780000     -1.5015732E-16
   6.792000     -1.8205402E-16
   6.804000     -2.0765277E-16
   6.816000     -2.2377676E-16
   6.828000     -2.2726884E-16
   6.840000     -2.1523363E-16
   6.852000     -1.8531247E-16
   6.864000     -1.3597669E-16
   6.876000     -6.6819809E-17
   6.888000      2.1174717E-17
   6.900000      1.2541670E-16
   6.912000      2.4157157E-16
   6.924000      3.6352963E-16
   6.936000      4.8350674E-16
   6.948000      5.9229674E-16
   6.960000      6.7968486E-16
   6.972000      7.3502491E-16
   6.984000      7.4796456E-16
   6.996000      7.0929396E-16
   7.008000      6.1187294E-16
   7.020000      4.5157968E-16
   7.032000      2.2821010E-16
   7.044000     -5.3753247E-17
   7.056000     -3.8458785E-16
   7.068000     -7.4907973E-16
   7.080000     -1.1266494E-15
   7.092000     -1.4919170E-15
   7.104000     -1.8157447E-15
   7.116000     -2.0667612E-15
   7.128000     -2.2133390E-15
   7.140000     -2.2259513E-15
   7.152000     -2.0797914E-15
   7.164000     -1.7574975E-15
   7.176000     -1.2517906E-15
   7.188000     -5.6780033E-16
   7.200000      2.7515402E-16
   7.212000      1.2425619E-15
   7.224000      2.2847130E-15
   7.236000      3.3378511E-15
   7.248000      4.3265969E-15
   7.260000      5.1676760E-15
   7.272000      5.7748648E-15
   7.284000      6.0649973E-15
   7.296000      5.9647251E-15
   7.308000      5.4176460E-15
   7.320000      4.3913068E-15
   7.332000      2.8835233E-15
   7.344000      9.2742019E-16
   7.356000     -1.4053933E-15
   7.368000     -4.0040598E-15
   7.380000     -6.7205563E-15
   7.392000     -9.3749115E-15
   7.404000     -1.1763653E-14
   7.416000     -1.3671331E-14
   7.428000     -1.4884724E-14
   7.440000     -1.5209058E-14
   7.452000     -1.4485307E-14
   7.464000     -1.2607437E-14
   7.476000     -9.5382728E-15
   7.488000     -5.3225937E-15
   7.500000     -9.6051141E-17
   7.512000      5.9113612E-15
   7.524000      1.2378384E-14
   7.536000      1.8902784E-14
   7.548000      2.5019190E-14
   7.560000      3.0224172E-14
   7.572000      3.4007787E-14
   7.584000      3.5890101E-14
   7.596000      3.5460702E-14
   7.608000      3.2418709E-14
   7.620000      2.6610297E-14
   7.632000      1.8060736E-14
   7.644000      6.9977038E-15
   7.656000     -6.1369976E-15
   7.668000     -2.0689754E-14
   7.680000     -3.5813281E-14
   7.692000     -5.0501368E-14
   7.704000     -6.3639910E-14
   7.716000     -7.4072733E-14
   7.728000     -8.0679305E-14
   7.740000     -8.2460304E-14
   7.752000     -7.8625820E-14
   7.764000     -6.8680189E-14
   7.776000     -5.2496757E-14
   7.788000     -3.0376062E-14
   7.800000     -3.0808797E-15
   7.812000      2.8157223E-14
   7.824000      6.1663978E-14
   7.836000      9.5383465E-14
   7.848000      1.2697410E-13
   7.860000      1.5393733E-13
   7.872000      1.7377355E-13
   7.884000      1.8415807E-13
   7.896000      1.8312675E-13
   7.908000      1.6925944E-13
   7.920000      1.4184824E-13
   7.932000      1.0103656E-13
   7.944000      4.7915719E-14
   7.956000     -1.5432601E-14
   7.968000     -8.5957818E-14
   7.980000     -1.5973172E-13
   7.992000     -2.3211186E-13
   8.004000     -2.9797397E-13
   8.016000     -3.5200551E-13
   8.028000     -3.8904749E-13
   8.040000     -4.0446631E-13
   8.052000     -3.9453361E-13
   8.064000     -3.5678914E-13
   8.076000     -2.9035964E-13
   8.088000     -1.9620697E-13
   8.100000     -7.7280210E-14
   8.112000      6.1448994E-14
   8.124000      2.1308430E-13
   8.136000      3.6904339E-13
   8.148000      5.1943812E-13
   8.160000      6.5358553E-13
   8.172000      7.6063071E-13
   8.184000      8.3025183E-13
   8.196000      8.5340963E-13
   8.208000      8.2309544E-13
   8.220000      7.3502944E-13
   8.232000      5.8825465E-13
   8.244000      3.8557894E-13
   8.256000      1.3381603E-13
   8.268000     -1.5620964E-13
   8.280000     -4.6992195E-13
   8.292000     -7.8952746E-13
   8.304000     -1.0948186E-12
   8.316000     -1.3642241E-12
   8.328000     -1.5760636E-12
   8.340000     -1.7099467E-12
   8.352000     -1.7482417E-12
   8.364000     -1.6775263E-12
   8.376000     -1.4899232E-12
   8.388000     -1.1842247E-12
   8.400000     -7.6670804E-13
   8.412000     -2.5155995E-13
   8.424000      3.3916245E-13
   8.436000      9.7607783E-13
   8.448000      1.6235542E-12
   8.460000      2.2412970E-12
   8.472000      2.7864059E-12
   8.484000      3.2158169E-12
   8.496000      3.4890190E-12
   8.508000      3.5708999E-12
   8.520000      3.4345565E-12
   8.532000      3.0638883E-12
   8.544000      2.4557884E-12
   8.556000      1.6217509E-12
   8.568000      5.8873647E-13
   8.580000     -6.0084018E-13
   8.592000     -1.8900892E-12
   8.604000     -3.2096307E-12
   8.616000     -4.4805661E-12
   8.628000     -5.6183578E-12
   8.640000     -6.5374628E-12
   8.652000     -7.1565219E-12
   8.664000     -7.4038284E-12
   8.676000     -7.2227771E-12
   8.688000     -6.5769447E-12
   8.700000     -5.4544654E-12
   8.712000     -3.8713407E-12
   8.724000     -1.8733853E-12
   8.736000      4.6345799E-13
   8.748000      3.0346108E-12
   8.760000      5.7102626E-12
   8.772000      8.3406554E-12
   8.784000      1.0763127E-11
   8.796000      1.2810650E-11
   8.808000      1.4321488E-11
   8.820000      1.5149508E-11
   8.832000      1.5174547E-11
   8.844000      1.4312253E-11
   8.856000      1.2522686E-11
   8.868000      9.8170977E-12
   8.880000      6.2622364E-12
   8.892000      1.9817143E-12
   8.904000     -2.8459418E-12
   8.916000     -7.9927558E-12
   8.928000     -1.3190282E-11
   8.940000     -1.8141880E-11
   8.952000     -2.2537843E-11
   8.964000     -2.6072708E-11
   8.976000     -2.8463917E-11
   8.988000     -2.9470763E-11
   9.000000     -2.8912515E-11
   9.012000     -2.6684521E-11
   9.024000     -2.2771129E-11
   9.036000     -1.7254299E-11
   9.048000     -1.0317045E-11
   9.060000     -2.2410053E-12
   9.072000      6.6022504E-12
   9.084000      1.5766130E-11
   9.096000      2.4749808E-11
   9.108000      3.3024097E-11
   9.120000      4.0061208E-11
   9.132000      4.5366898E-11
   9.144000      4.8513190E-11
   9.156000      4.9169623E-11
   9.168000      4.7131018E-11
   9.180000      4.2339642E-11
   9.192000      3.4899944E-11
   9.204000      2.5084261E-11
   9.216000      1.3328440E-11
   9.228000      2.1676115E-13
   9.240000     -1.3543757E-11
   9.252000     -2.7158881E-11
   9.264000     -3.9791111E-11
   9.276000     -5.0609867E-11
   9.288000     -5.8845255E-11
   9.300000     -6.3842209E-11
   9.312000     -6.5111569E-11
   9.324000     -6.2374439E-11
   9.336000     -5.5596500E-11
   9.348000     -4.5009101E-11
   9.360000     -3.1114621E-11
   9.372000     -1.4674449E-11
   9.384000      3.3211624E-12
   9.396000      2.1700971E-11
   9.408000      3.9176749E-11
   9.420000      5.4420676E-11
   9.432000      6.6152236E-11
   9.444000      7.3229707E-11
   9.456000      7.4740783E-11
   9.468000      7.0086235E-11
   9.480000      5.9050521E-11
   9.492000      4.1853635E-11
   9.504000      1.9178895E-11
   9.516000     -7.8271530E-12
   9.528000     -3.7585487E-11
   9.540000     -6.8146835E-11
   9.552000     -9.7284292E-11
   9.564000     -1.2261352E-10
   9.576000     -1.4173504E-10
   9.588000     -1.5239217E-10
   9.600000     -1.5263571E-10
   9.612000     -1.4098579E-10
   9.624000     -1.1658052E-10
   9.636000     -7.9300684E-11
   9.648000     -2.9860621E-11
   9.660000      3.0143645E-11
   9.672000      9.8235989E-11
   9.684000      1.7111622E-10
   9.696000      2.4477242E-10
   9.708000      3.1464778E-10
   9.720000      3.7585751E-10
   9.732000      4.2344725E-10
   9.744000      4.5268178E-10
   9.756000      4.5934942E-10
   9.768000      4.4006615E-10
   9.780000      3.9256107E-10
   9.792000      3.1592581E-10
   9.804000      2.1080947E-10
   9.816000      7.9543289E-11
   9.828000     -7.3818070E-11
   9.840000     -2.4354868E-10
   9.852000     -4.2240189E-10
   9.864000     -6.0185962E-10
   9.876000     -7.7247425E-10
   9.888000     -9.2429286E-10
   9.900000     -1.0473463E-09
   9.912000     -1.1321822E-09
   9.924000     -1.1704153E-09
   9.936000     -1.1552679E-09
   9.948000     -1.0820693E-09
   9.960000     -9.4868335E-10
   9.972000     -7.5583645E-10
   9.984000     -5.0732030E-10
   9.996000     -2.1004887E-10
   10.00800      1.2604408E-10
   10.02000      4.8827359E-10
   10.03200      8.6163537E-10
   10.04400      1.2293890E-09
   10.05600      1.5737744E-09
   10.06800      1.8768294E-09
   10.08000      2.1212736E-09
   10.09200      2.2914188E-09
   10.10400      2.3740523E-09
   10.11600      2.3592523E-09
   10.12800      2.2410829E-09
   10.14000      2.0181243E-09
   10.15200      1.6938047E-09
   10.16400      1.2764981E-09
   10.17600      7.7937568E-10
   10.18800      2.2000007E-10
   10.20000     -3.8032694E-10
   10.21200     -9.9744135E-10
   10.22400     -1.6053856E-09
   10.23600     -2.1776161E-09
   10.24800     -2.6882936E-09
   10.26000     -3.1135872E-09
   10.27200     -3.4329206E-09
   10.28400     -3.6300893E-09
   10.29600     -3.6941790E-09
   10.30800     -3.6202250E-09
   10.32000     -3.4095660E-09
   10.33200     -3.0698535E-09
   10.34400     -2.6147120E-09
   10.35600     -2.0630480E-09
   10.36800     -1.4380414E-09
   10.38000     -7.6586826E-10
   10.39200     -7.4224217E-11
   10.40400      6.0926508E-10
   10.41600      1.2586481E-09
   10.42800      1.8511624E-09
   10.44000      2.3685556E-09
   10.45200      2.7981133E-09
   10.46400      3.1333138E-09
   10.47600      3.3740402E-09
   10.48800      3.5263146E-09
   10.50000      3.6015528E-09
   10.51200      3.6153576E-09
   10.52400      3.5859207E-09
   10.53600      3.5321241E-09
   10.54800      3.4714664E-09
   10.56000      3.4179612E-09
   10.57200      3.3801704E-09
   10.58400      3.3595422E-09
   10.59600      3.3492140E-09
   10.60800      3.3334244E-09
   10.62000      3.2876513E-09
   10.63200      3.1795444E-09
   10.64400      2.9706799E-09
   10.65600      2.6191009E-09
   10.66800      2.0825486E-09
   10.68000      1.3222368E-09
   10.69200      3.0695357E-10
   10.70400     -9.8276054E-10
   10.71600     -2.5506512E-09
   10.72800     -4.3813153E-09
   10.74000     -6.4376011E-09
   10.75200     -8.6591303E-09
   10.76400     -1.0962192E-08
   10.77600     -1.3241186E-08
   10.78800     -1.5371716E-08
   10.80000     -1.7215344E-08
   10.81200     -1.8625895E-08
   10.82400     -1.9457117E-08
   10.83600     -1.9571321E-08
   10.84800     -1.8848665E-08
   10.86000     -1.7196506E-08
   10.87200     -1.4558294E-08
   10.88400     -1.0921420E-08
   10.89600     -6.3234156E-09
   10.90800     -8.5598978E-10
   10.92000      5.3335860E-09
   10.93200      1.2044063E-08
   10.94400      1.9024990E-08
   10.95600      2.5984706E-08
   10.96800      3.2601374E-08
   10.98000      3.8536726E-08
   10.99200      4.3451958E-08
   11.00400      4.7025090E-08
   11.01600      4.8968907E-08
   11.02800      4.9048555E-08
   11.04000      4.7097775E-08
   11.05200      4.3032767E-08
   11.06400      3.6862783E-08
   11.07600      2.8696547E-08
   11.08800      1.8743972E-08
   11.10000      7.3126474E-09
   11.11200     -5.2009268E-09
   11.12400     -1.8325320E-08
   11.13600     -3.1532839E-08
   11.14800     -4.4262187E-08
   11.16000     -5.5944053E-08
   11.17200     -6.6028470E-08
   11.18400     -7.4012426E-08
   11.19600     -7.9466425E-08
   11.20800     -8.2058349E-08
   11.22000     -8.1573234E-08
   11.23200     -7.7927837E-08
   11.24400     -7.1178853E-08
   11.25600     -6.1524119E-08
   11.26800     -4.9296592E-08
   11.28000     -3.4951064E-08
   11.29200     -1.9044222E-08
   11.30400     -2.2089195E-09
   11.31600      1.4876041E-08
   11.32800      3.1519043E-08
   11.34000      4.7049923E-08
   11.35200      6.0853452E-08
   11.36400      7.2400091E-08
   11.37600      8.1272269E-08
   11.38800      8.7184546E-08
   11.40000      8.9996355E-08
   11.41200      8.9716657E-08
   11.42400      8.6499853E-08
   11.43600      8.0633448E-08
   11.44800      7.2517842E-08
   11.46000      6.2639650E-08
   11.47200      5.1539978E-08