 -0.1200000      0.0000000E+00
 -0.1080000      0.0000000E+00
 -9.6000001E-02  0.0000000E+00
 -8.3999999E-02  0.0000000E+00
 -7.1999997E-02  0.0000000E+00
 -5.9999999E-02  0.0000000E+00
 -4.8000000E-02  0.0000000E+00
 -3.5999998E-02  0.0000000E+00
 -2.4000000E-02  0.0000000E+00
 -1.2000000E-02  0.0000000E+00
  6.9388939E-18  0.0000000E+00
  1.2000000E-02  0.0000000E+00
  2.4000000E-02  0.0000000E+00
  3.5999998E-02  0.0000000E+00
  4.8000000E-02  0.0000000E+00
  5.9999999E-02  0.0000000E+00
  7.1999997E-02  0.0000000E+00
  8.3999999E-02  0.0000000E+00
  9.6000001E-02  0.0000000E+00
  0.1080000      0.0000000E+00
  0.1200000      0.0000000E+00
  0.1320000      0.0000000E+00
  0.1440000      0.0000000E+00
  0.1560000      0.0000000E+00
  0.1680000      0.0000000E+00
  0.1800000      0.0000000E+00
  0.1920000      0.0000000E+00
  0.2040000      0.0000000E+00
  0.2160000      0.0000000E+00
  0.2280000      0.0000000E+00
  0.2400000      0.0000000E+00
  0.2520000      0.0000000E+00
  0.2640000      0.0000000E+00
  0.2760000      0.0000000E+00
  0.2880000      0.0000000E+00
  0.3000000      0.0000000E+00
  0.3120000      0.0000000E+00
  0.3240000      0.0000000E+00
  0.3360000      0.0000000E+00
  0.3480000      0.0000000E+00
  0.3600000      0.0000000E+00
  0.3720000      0.0000000E+00
  0.3840000      0.0000000E+00
  0.3960000      0.0000000E+00
  0.4080000      0.0000000E+00
  0.4200000      0.0000000E+00
  0.4320000      0.0000000E+00
  0.4440000      0.0000000E+00
  0.4560000      0.0000000E+00
  0.4680000      0.0000000E+00
  0.4800000      0.0000000E+00
  0.4920000      0.0000000E+00
  0.5040000      0.0000000E+00
  0.5160000      0.0000000E+00
  0.5280000      0.0000000E+00
  0.5400000      0.0000000E+00
  0.5520000      0.0000000E+00
  0.5640000      0.0000000E+00
  0.5760000      0.0000000E+00
  0.5880000      0.0000000E+00
  0.6000000      0.0000000E+00
  0.6120000      0.0000000E+00
  0.6240000      0.0000000E+00
  0.6360000      0.0000000E+00
  0.6480000      0.0000000E+00
  0.6600000      0.0000000E+00
  0.6720000      0.0000000E+00
  0.6840000      0.0000000E+00
  0.6960000      0.0000000E+00
  0.7080000      0.0000000E+00
  0.7200000      0.0000000E+00
  0.7320000      0.0000000E+00
  0.7440000      0.0000000E+00
  0.7560000      0.0000000E+00
  0.7680000      0.0000000E+00
  0.7800000      0.0000000E+00
  0.7920000      0.0000000E+00
  0.8040000      0.0000000E+00
  0.8160000      0.0000000E+00
  0.8280000      0.0000000E+00
  0.8400000      0.0000000E+00
  0.8520000      0.0000000E+00
  0.8640000      0.0000000E+00
  0.8760000      0.0000000E+00
  0.8880000      0.0000000E+00
  0.9000000      0.0000000E+00
  0.9120000      0.0000000E+00
  0.9240000      0.0000000E+00
  0.9360000      0.0000000E+00
  0.9480000      0.0000000E+00
  0.9600000      0.0000000E+00
  0.9720000      0.0000000E+00
  0.9840000      0.0000000E+00
  0.9960000      0.0000000E+00
   1.008000      0.0000000E+00
   1.020000      0.0000000E+00
   1.032000      0.0000000E+00
   1.044000      0.0000000E+00
   1.056000      0.0000000E+00
   1.068000      0.0000000E+00
   1.080000      0.0000000E+00
   1.092000      0.0000000E+00
   1.104000      0.0000000E+00
   1.116000      0.0000000E+00
   1.128000      0.0000000E+00
   1.140000      0.0000000E+00
   1.152000      0.0000000E+00
   1.164000      0.0000000E+00
   1.176000      0.0000000E+00
   1.188000      0.0000000E+00
   1.200000      0.0000000E+00
   1.212000      0.0000000E+00
   1.224000      0.0000000E+00
   1.236000      0.0000000E+00
   1.248000      0.0000000E+00
   1.260000      0.0000000E+00
   1.272000      0.0000000E+00
   1.284000      0.0000000E+00
   1.296000      0.0000000E+00
   1.308000      0.0000000E+00
   1.320000      0.0000000E+00
   1.332000      0.0000000E+00
   1.344000      0.0000000E+00
   1.356000      0.0000000E+00
   1.368000      0.0000000E+00
   1.380000      0.0000000E+00
   1.392000      0.0000000E+00
   1.404000      0.0000000E+00
   1.416000      0.0000000E+00
   1.428000      0.0000000E+00
   1.440000      0.0000000E+00
   1.452000      0.0000000E+00
   1.464000      0.0000000E+00
   1.476000      0.0000000E+00
   1.488000      0.0000000E+00
   1.500000      0.0000000E+00
   1.512000      0.0000000E+00
   1.524000      0.0000000E+00
   1.536000      0.0000000E+00
   1.548000      0.0000000E+00
   1.560000      0.0000000E+00
   1.572000      0.0000000E+00
   1.584000      0.0000000E+00
   1.596000      0.0000000E+00
   1.608000      0.0000000E+00
   1.620000      0.0000000E+00
   1.632000      0.0000000E+00
   1.644000      0.0000000E+00
   1.656000      0.0000000E+00
   1.668000      0.0000000E+00
   1.680000      0.0000000E+00
   1.692000      0.0000000E+00
   1.704000      0.0000000E+00
   1.716000      0.0000000E+00
   1.728000      0.0000000E+00
   1.740000      0.0000000E+00
   1.752000      0.0000000E+00
   1.764000      0.0000000E+00
   1.776000      0.0000000E+00
   1.788000      0.0000000E+00
   1.800000      0.0000000E+00
   1.812000      0.0000000E+00
   1.824000      0.0000000E+00
   1.836000      0.0000000E+00
   1.848000      0.0000000E+00
   1.860000      0.0000000E+00
   1.872000      0.0000000E+00
   1.884000      0.0000000E+00
   1.896000      0.0000000E+00
   1.908000      0.0000000E+00
   1.920000      0.0000000E+00
   1.932000      0.0000000E+00
   1.944000      0.0000000E+00
   1.956000      0.0000000E+00
   1.968000      0.0000000E+00
   1.980000      0.0000000E+00
   1.992000      0.0000000E+00
   2.004000      0.0000000E+00
   2.016000      0.0000000E+00
   2.028000      0.0000000E+00
   2.040000      0.0000000E+00
   2.052000      0.0000000E+00
   2.064000      0.0000000E+00
   2.076000      0.0000000E+00
   2.088000      0.0000000E+00
   2.100000      0.0000000E+00
   2.112000      0.0000000E+00
   2.124000      0.0000000E+00
   2.136000      0.0000000E+00
   2.148000      0.0000000E+00
   2.160000      0.0000000E+00
   2.172000      0.0000000E+00
   2.184000      0.0000000E+00
   2.196000      0.0000000E+00
   2.208000      0.0000000E+00
   2.220000      0.0000000E+00
   2.232000      0.0000000E+00
   2.244000      0.0000000E+00
   2.256000      0.0000000E+00
   2.268000      0.0000000E+00
   2.280000      0.0000000E+00
   2.292000      0.0000000E+00
   2.304000      0.0000000E+00
   2.316000      0.0000000E+00
   2.328000      0.0000000E+00
   2.340000      0.0000000E+00
   2.352000      0.0000000E+00
   2.364000      0.0000000E+00
   2.376000      0.0000000E+00
   2.388000      0.0000000E+00
   2.400000      0.0000000E+00
   2.412000      0.0000000E+00
   2.424000      0.0000000E+00
   2.436000      0.0000000E+00
   2.448000      0.0000000E+00
   2.460000      0.0000000E+00
   2.472000      0.0000000E+00
   2.484000      0.0000000E+00
   2.496000      0.0000000E+00
   2.508000      0.0000000E+00
   2.520000      0.0000000E+00
   2.532000      0.0000000E+00
   2.544000      0.0000000E+00
   2.556000      0.0000000E+00
   2.568000      0.0000000E+00
   2.580000      0.0000000E+00
   2.592000      0.0000000E+00
   2.604000      0.0000000E+00
   2.616000      0.0000000E+00
   2.628000      0.0000000E+00
   2.640000      0.0000000E+00
   2.652000      0.0000000E+00
   2.664000      0.0000000E+00
   2.676000      0.0000000E+00
   2.688000      0.0000000E+00
   2.700000      0.0000000E+00
   2.712000      0.0000000E+00
   2.724000      0.0000000E+00
   2.736000      0.0000000E+00
   2.748000      0.0000000E+00
   2.760000      0.0000000E+00
   2.772000      0.0000000E+00
   2.784000      0.0000000E+00
   2.796000      0.0000000E+00
   2.808000      0.0000000E+00
   2.820000      0.0000000E+00
   2.832000      0.0000000E+00
   2.844000      0.0000000E+00
   2.856000      0.0000000E+00
   2.868000      0.0000000E+00
   2.880000      0.0000000E+00
   2.892000      0.0000000E+00
   2.904000      0.0000000E+00
   2.916000      0.0000000E+00
   2.928000      0.0000000E+00
   2.940000      0.0000000E+00
   2.952000      0.0000000E+00
   2.964000      0.0000000E+00
   2.976000      0.0000000E+00
   2.988000      0.0000000E+00
   3.000000      0.0000000E+00
   3.012000      0.0000000E+00
   3.024000      0.0000000E+00
   3.036000      0.0000000E+00
   3.048000      0.0000000E+00
   3.060000      0.0000000E+00
   3.072000      0.0000000E+00
   3.084000      0.0000000E+00
   3.096000      0.0000000E+00
   3.108000      0.0000000E+00
   3.120000      0.0000000E+00
   3.132000      0.0000000E+00
   3.144000      0.0000000E+00
   3.156000      0.0000000E+00
   3.168000      0.0000000E+00
   3.180000      0.0000000E+00
   3.192000      0.0000000E+00
   3.204000      0.0000000E+00
   3.216000      0.0000000E+00
   3.228000      0.0000000E+00
   3.240000      0.0000000E+00
   3.252000      0.0000000E+00
   3.264000      0.0000000E+00
   3.276000      0.0000000E+00
   3.288000      0.0000000E+00
   3.300000      0.0000000E+00
   3.312000      0.0000000E+00
   3.324000      0.0000000E+00
   3.336000      0.0000000E+00
   3.348000      0.0000000E+00
   3.360000      0.0000000E+00
   3.372000      0.0000000E+00
   3.384000      0.0000000E+00
   3.396000      0.0000000E+00
   3.408000      0.0000000E+00
   3.420000      0.0000000E+00
   3.432000      0.0000000E+00
   3.444000      0.0000000E+00
   3.456000      0.0000000E+00
   3.468000      0.0000000E+00
   3.480000      0.0000000E+00
   3.492000      0.0000000E+00
   3.504000      0.0000000E+00
   3.516000      0.0000000E+00
   3.528000      0.0000000E+00
   3.540000      0.0000000E+00
   3.552000      0.0000000E+00
   3.564000      0.0000000E+00
   3.576000      0.0000000E+00
   3.588000      0.0000000E+00
   3.600000      0.0000000E+00
   3.612000      0.0000000E+00
   3.624000      0.0000000E+00
   3.636000      0.0000000E+00
   3.648000      0.0000000E+00
   3.660000      0.0000000E+00
   3.672000      0.0000000E+00
   3.684000      0.0000000E+00
   3.696000      0.0000000E+00
   3.708000      0.0000000E+00
   3.720000      0.0000000E+00
   3.732000      0.0000000E+00
   3.744000      0.0000000E+00
   3.756000      0.0000000E+00
   3.768000      0.0000000E+00
   3.780000      0.0000000E+00
   3.792000      0.0000000E+00
   3.804000      0.0000000E+00
   3.816000      0.0000000E+00
   3.828000      0.0000000E+00
   3.840000      0.0000000E+00
   3.852000      0.0000000E+00
   3.864000      0.0000000E+00
   3.876000      0.0000000E+00
   3.888000      0.0000000E+00
   3.900000      0.0000000E+00
   3.912000      0.0000000E+00
   3.924000      0.0000000E+00
   3.936000      0.0000000E+00
   3.948000      0.0000000E+00
   3.960000      0.0000000E+00
   3.972000      0.0000000E+00
   3.984000      0.0000000E+00
   3.996000      0.0000000E+00
   4.008000      0.0000000E+00
   4.020000      0.0000000E+00
   4.032000      0.0000000E+00
   4.044000      0.0000000E+00
   4.056000      0.0000000E+00
   4.068000      0.0000000E+00
   4.080000      0.0000000E+00
   4.092000      0.0000000E+00
   4.104000      0.0000000E+00
   4.116000      0.0000000E+00
   4.128000      0.0000000E+00
   4.140000      0.0000000E+00
   4.152000      0.0000000E+00
   4.164000      0.0000000E+00
   4.176000      0.0000000E+00
   4.188000      0.0000000E+00
   4.200000      0.0000000E+00
   4.212000      0.0000000E+00
   4.224000      0.0000000E+00
   4.236000      0.0000000E+00
   4.248000      0.0000000E+00
   4.260000      0.0000000E+00
   4.272000      0.0000000E+00
   4.284000      0.0000000E+00
   4.296000      0.0000000E+00
   4.308000      0.0000000E+00
   4.320000      0.0000000E+00
   4.332000      0.0000000E+00
   4.344000      0.0000000E+00
   4.356000      0.0000000E+00
   4.368000      0.0000000E+00
   4.380000      0.0000000E+00
   4.392000      0.0000000E+00
   4.404000      0.0000000E+00
   4.416000      0.0000000E+00
   4.428000      0.0000000E+00
   4.440000      0.0000000E+00
   4.452000      0.0000000E+00
   4.464000      0.0000000E+00
   4.476000      0.0000000E+00
   4.488000      0.0000000E+00
   4.500000      0.0000000E+00
   4.512000      0.0000000E+00
   4.524000      0.0000000E+00
   4.536000      0.0000000E+00
   4.548000      0.0000000E+00
   4.560000      0.0000000E+00
   4.572000      0.0000000E+00
   4.584000      0.0000000E+00
   4.596000      0.0000000E+00
   4.608000      0.0000000E+00
   4.620000      0.0000000E+00
   4.632000      0.0000000E+00
   4.644000      0.0000000E+00
   4.656000      0.0000000E+00
   4.668000      0.0000000E+00
   4.680000      0.0000000E+00
   4.692000      0.0000000E+00
   4.704000      0.0000000E+00
   4.716000      0.0000000E+00
   4.728000      0.0000000E+00
   4.740000      0.0000000E+00
   4.752000      0.0000000E+00
   4.764000      0.0000000E+00
   4.776000      0.0000000E+00
   4.788000      0.0000000E+00
   4.800000      0.0000000E+00
   4.812000      0.0000000E+00
   4.824000      0.0000000E+00
   4.836000      0.0000000E+00
   4.848000      0.0000000E+00
   4.860000      0.0000000E+00
   4.872000      0.0000000E+00
   4.884000      0.0000000E+00
   4.896000      0.0000000E+00
   4.908000      0.0000000E+00
   4.920000      0.0000000E+00
   4.932000      0.0000000E+00
   4.944000      0.0000000E+00
   4.956000      0.0000000E+00
   4.968000      0.0000000E+00
   4.980000      0.0000000E+00
   4.992000      0.0000000E+00
   5.004000      0.0000000E+00
   5.016000      0.0000000E+00
   5.028000      0.0000000E+00
   5.040000      0.0000000E+00
   5.052000      0.0000000E+00
   5.064000      0.0000000E+00
   5.076000      0.0000000E+00
   5.088000      0.0000000E+00
   5.100000      0.0000000E+00
   5.112000      0.0000000E+00
   5.124000      0.0000000E+00
   5.136000      0.0000000E+00
   5.148000      0.0000000E+00
   5.160000      0.0000000E+00
   5.172000      0.0000000E+00
   5.184000      0.0000000E+00
   5.196000      0.0000000E+00
   5.208000      0.0000000E+00
   5.220000      0.0000000E+00
   5.232000      0.0000000E+00
   5.244000      0.0000000E+00
   5.256000      0.0000000E+00
   5.268000      0.0000000E+00
   5.280000      0.0000000E+00
   5.292000      0.0000000E+00
   5.304000      0.0000000E+00
   5.316000      0.0000000E+00
   5.328000      0.0000000E+00
   5.340000      0.0000000E+00
   5.352000      0.0000000E+00
   5.364000      0.0000000E+00
   5.376000      0.0000000E+00
   5.388000      0.0000000E+00
   5.400000      0.0000000E+00
   5.412000      0.0000000E+00
   5.424000      0.0000000E+00
   5.436000      0.0000000E+00
   5.448000      0.0000000E+00
   5.460000      0.0000000E+00
   5.472000      0.0000000E+00
   5.484000      0.0000000E+00
   5.496000      0.0000000E+00
   5.508000      0.0000000E+00
   5.520000      0.0000000E+00
   5.532000      0.0000000E+00
   5.544000      0.0000000E+00
   5.556000      0.0000000E+00
   5.568000      0.0000000E+00
   5.580000      0.0000000E+00
   5.592000      0.0000000E+00
   5.604000      0.0000000E+00
   5.616000      0.0000000E+00
   5.628000      0.0000000E+00
   5.640000      0.0000000E+00
   5.652000      0.0000000E+00
   5.664000      0.0000000E+00
   5.676000      0.0000000E+00
   5.688000      0.0000000E+00
   5.700000      0.0000000E+00
   5.712000      0.0000000E+00
   5.724000      0.0000000E+00
   5.736000      0.0000000E+00
   5.748000      0.0000000E+00
   5.760000      0.0000000E+00
   5.772000      0.0000000E+00
   5.784000      0.0000000E+00
   5.796000      0.0000000E+00
   5.808000      0.0000000E+00
   5.820000      0.0000000E+00
   5.832000      0.0000000E+00
   5.844000      0.0000000E+00
   5.856000      0.0000000E+00
   5.868000      0.0000000E+00
   5.880000      0.0000000E+00
   5.892000      0.0000000E+00
   5.904000      0.0000000E+00
   5.916000      0.0000000E+00
   5.928000      0.0000000E+00
   5.940000      0.0000000E+00
   5.952000      0.0000000E+00
   5.964000      0.0000000E+00
   5.976000      0.0000000E+00
   5.988000      0.0000000E+00
   6.000000      0.0000000E+00
   6.012000      0.0000000E+00
   6.024000      0.0000000E+00
   6.036000      0.0000000E+00
   6.048000      0.0000000E+00
   6.060000      0.0000000E+00
   6.072000      0.0000000E+00
   6.084000      0.0000000E+00
   6.096000      0.0000000E+00
   6.108000      0.0000000E+00
   6.120000      0.0000000E+00
   6.132000      0.0000000E+00
   6.144000      0.0000000E+00
   6.156000      0.0000000E+00
   6.168000      0.0000000E+00
   6.180000      0.0000000E+00
   6.192000      0.0000000E+00
   6.204000      0.0000000E+00
   6.216000      0.0000000E+00
   6.228000      0.0000000E+00
   6.240000      0.0000000E+00
   6.252000      0.0000000E+00
   6.264000      0.0000000E+00
   6.276000      0.0000000E+00
   6.288000      0.0000000E+00
   6.300000      0.0000000E+00
   6.312000      0.0000000E+00
   6.324000      0.0000000E+00
   6.336000      0.0000000E+00
   6.348000      0.0000000E+00
   6.360000      0.0000000E+00
   6.372000      0.0000000E+00
   6.384000      0.0000000E+00
   6.396000      0.0000000E+00
   6.408000      0.0000000E+00
   6.420000      0.0000000E+00
   6.432000      0.0000000E+00
   6.444000      0.0000000E+00
   6.456000      0.0000000E+00
   6.468000      0.0000000E+00
   6.480000      0.0000000E+00
   6.492000      0.0000000E+00
   6.504000      0.0000000E+00
   6.516000      0.0000000E+00
   6.528000      0.0000000E+00
   6.540000      0.0000000E+00
   6.552000      0.0000000E+00
   6.564000      0.0000000E+00
   6.576000      0.0000000E+00
   6.588000      0.0000000E+00
   6.600000      0.0000000E+00
   6.612000      0.0000000E+00
   6.624000      0.0000000E+00
   6.636000      0.0000000E+00
   6.648000      0.0000000E+00
   6.660000      0.0000000E+00
   6.672000      0.0000000E+00
   6.684000      0.0000000E+00
   6.696000      0.0000000E+00
   6.708000      0.0000000E+00
   6.720000      0.0000000E+00
   6.732000      0.0000000E+00
   6.744000      0.0000000E+00
   6.756000      0.0000000E+00
   6.768000      0.0000000E+00
   6.780000      0.0000000E+00
   6.792000      0.0000000E+00
   6.804000      0.0000000E+00
   6.816000      0.0000000E+00
   6.828000      0.0000000E+00
   6.840000      0.0000000E+00
   6.852000      0.0000000E+00
   6.864000      0.0000000E+00
   6.876000      0.0000000E+00
   6.888000      0.0000000E+00
   6.900000      0.0000000E+00
   6.912000      0.0000000E+00
   6.924000      0.0000000E+00
   6.936000      0.0000000E+00
   6.948000      0.0000000E+00
   6.960000      0.0000000E+00
   6.972000      0.0000000E+00
   6.984000      0.0000000E+00
   6.996000      0.0000000E+00
   7.008000      0.0000000E+00
   7.020000      0.0000000E+00
   7.032000      0.0000000E+00
   7.044000      0.0000000E+00
   7.056000      0.0000000E+00
   7.068000      0.0000000E+00
   7.080000      0.0000000E+00
   7.092000      0.0000000E+00
   7.104000      0.0000000E+00
   7.116000      0.0000000E+00
   7.128000      0.0000000E+00
   7.140000      0.0000000E+00
   7.152000      0.0000000E+00
   7.164000      0.0000000E+00
   7.176000      0.0000000E+00
   7.188000      0.0000000E+00
   7.200000      0.0000000E+00
   7.212000      0.0000000E+00
   7.224000      0.0000000E+00
   7.236000      0.0000000E+00
   7.248000      0.0000000E+00
   7.260000      0.0000000E+00
   7.272000      0.0000000E+00
   7.284000      0.0000000E+00
   7.296000      0.0000000E+00
   7.308000      0.0000000E+00
   7.320000      0.0000000E+00
   7.332000      0.0000000E+00
   7.344000      0.0000000E+00
   7.356000      0.0000000E+00
   7.368000      0.0000000E+00
   7.380000      0.0000000E+00
   7.392000      0.0000000E+00
   7.404000      0.0000000E+00
   7.416000      0.0000000E+00
   7.428000      0.0000000E+00
   7.440000      0.0000000E+00
   7.452000      0.0000000E+00
   7.464000      0.0000000E+00
   7.476000      0.0000000E+00
   7.488000      0.0000000E+00
   7.500000      0.0000000E+00
   7.512000      0.0000000E+00
   7.524000      0.0000000E+00
   7.536000      0.0000000E+00
   7.548000      0.0000000E+00
   7.560000      0.0000000E+00
   7.572000      0.0000000E+00
   7.584000      0.0000000E+00
   7.596000      0.0000000E+00
   7.608000      0.0000000E+00
   7.620000      0.0000000E+00
   7.632000      0.0000000E+00
   7.644000      0.0000000E+00
   7.656000      0.0000000E+00
   7.668000      0.0000000E+00
   7.680000      0.0000000E+00
   7.692000      0.0000000E+00
   7.704000      0.0000000E+00
   7.716000      0.0000000E+00
   7.728000      0.0000000E+00
   7.740000      0.0000000E+00
   7.752000      0.0000000E+00
   7.764000      0.0000000E+00
   7.776000      0.0000000E+00
   7.788000      0.0000000E+00
   7.800000      0.0000000E+00
   7.812000      0.0000000E+00
   7.824000      0.0000000E+00
   7.836000      0.0000000E+00
   7.848000      0.0000000E+00
   7.860000      0.0000000E+00
   7.872000      0.0000000E+00
   7.884000      0.0000000E+00
   7.896000      0.0000000E+00
   7.908000      0.0000000E+00
   7.920000      0.0000000E+00
   7.932000      0.0000000E+00
   7.944000      0.0000000E+00
   7.956000      0.0000000E+00
   7.968000      0.0000000E+00
   7.980000      0.0000000E+00
   7.992000      0.0000000E+00
   8.004000      0.0000000E+00
   8.016000      0.0000000E+00
   8.028000      0.0000000E+00
   8.040000      0.0000000E+00
   8.052000      0.0000000E+00
   8.064000      0.0000000E+00
   8.076000      0.0000000E+00
   8.088000      0.0000000E+00
   8.100000      0.0000000E+00
   8.112000      0.0000000E+00
   8.124000      0.0000000E+00
   8.136000      0.0000000E+00
   8.148000      0.0000000E+00
   8.160000      0.0000000E+00
   8.172000      0.0000000E+00
   8.184000      0.0000000E+00
   8.196000      0.0000000E+00
   8.208000      0.0000000E+00
   8.220000      0.0000000E+00
   8.232000      0.0000000E+00
   8.244000      0.0000000E+00
   8.256000      0.0000000E+00
   8.268000      0.0000000E+00
   8.280000      0.0000000E+00
   8.292000      0.0000000E+00
   8.304000      0.0000000E+00
   8.316000      0.0000000E+00
   8.328000      0.0000000E+00
   8.340000      0.0000000E+00
   8.352000      0.0000000E+00
   8.364000      0.0000000E+00
   8.376000      0.0000000E+00
   8.388000      0.0000000E+00
   8.400000      0.0000000E+00
   8.412000      0.0000000E+00
   8.424000      0.0000000E+00
   8.436000      0.0000000E+00
   8.448000      0.0000000E+00
   8.460000      0.0000000E+00
   8.472000      0.0000000E+00
   8.484000      0.0000000E+00
   8.496000      0.0000000E+00
   8.508000      0.0000000E+00
   8.520000      0.0000000E+00
   8.532000      0.0000000E+00
   8.544000      0.0000000E+00
   8.556000      0.0000000E+00
   8.568000      0.0000000E+00
   8.580000      0.0000000E+00
   8.592000      0.0000000E+00
   8.604000      0.0000000E+00
   8.616000      0.0000000E+00
   8.628000      0.0000000E+00
   8.640000      0.0000000E+00
   8.652000      0.0000000E+00
   8.664000      0.0000000E+00
   8.676000      0.0000000E+00
   8.688000      0.0000000E+00
   8.700000      0.0000000E+00
   8.712000      0.0000000E+00
   8.724000      0.0000000E+00
   8.736000      0.0000000E+00
   8.748000      0.0000000E+00
   8.760000      0.0000000E+00
   8.772000      0.0000000E+00
   8.784000      0.0000000E+00
   8.796000      0.0000000E+00
   8.808000      0.0000000E+00
   8.820000      0.0000000E+00
   8.832000      0.0000000E+00
   8.844000      0.0000000E+00
   8.856000      0.0000000E+00
   8.868000      0.0000000E+00
   8.880000      0.0000000E+00
   8.892000      0.0000000E+00
   8.904000      0.0000000E+00
   8.916000      0.0000000E+00
   8.928000      0.0000000E+00
   8.940000      0.0000000E+00
   8.952000      0.0000000E+00
   8.964000      0.0000000E+00
   8.976000      0.0000000E+00
   8.988000      0.0000000E+00
   9.000000      0.0000000E+00
   9.012000      0.0000000E+00
   9.024000      0.0000000E+00
   9.036000      0.0000000E+00
   9.048000      0.0000000E+00
   9.060000      0.0000000E+00
   9.072000      0.0000000E+00
   9.084000      0.0000000E+00
   9.096000      0.0000000E+00
   9.108000      0.0000000E+00
   9.120000      0.0000000E+00
   9.132000      0.0000000E+00
   9.144000      0.0000000E+00
   9.156000      0.0000000E+00
   9.168000      0.0000000E+00
   9.180000      0.0000000E+00
   9.192000      0.0000000E+00
   9.204000      0.0000000E+00
   9.216000      0.0000000E+00
   9.228000      0.0000000E+00
   9.240000      0.0000000E+00
   9.252000      0.0000000E+00
   9.264000      0.0000000E+00
   9.276000      0.0000000E+00
   9.288000      0.0000000E+00
   9.300000      0.0000000E+00
   9.312000      0.0000000E+00
   9.324000      0.0000000E+00
   9.336000      0.0000000E+00
   9.348000      0.0000000E+00
   9.360000      0.0000000E+00
   9.372000      0.0000000E+00
   9.384000      0.0000000E+00
   9.396000      0.0000000E+00
   9.408000      0.0000000E+00
   9.420000      0.0000000E+00
   9.432000      0.0000000E+00
   9.444000      0.0000000E+00
   9.456000      0.0000000E+00
   9.468000      0.0000000E+00
   9.480000      0.0000000E+00
   9.492000      0.0000000E+00
   9.504000      0.0000000E+00
   9.516000      0.0000000E+00
   9.528000      0.0000000E+00
   9.540000      0.0000000E+00
   9.552000      0.0000000E+00
   9.564000      0.0000000E+00
   9.576000      0.0000000E+00
   9.588000      0.0000000E+00
   9.600000      0.0000000E+00
   9.612000      0.0000000E+00
   9.624000      0.0000000E+00
   9.636000      0.0000000E+00
   9.648000      0.0000000E+00
   9.660000      0.0000000E+00
   9.672000      0.0000000E+00
   9.684000      0.0000000E+00
   9.696000      0.0000000E+00
   9.708000      0.0000000E+00
   9.720000      0.0000000E+00
   9.732000      0.0000000E+00
   9.744000      0.0000000E+00
   9.756000      0.0000000E+00
   9.768000      0.0000000E+00
   9.780000      0.0000000E+00
   9.792000      0.0000000E+00
   9.804000      0.0000000E+00
   9.816000      0.0000000E+00
   9.828000      0.0000000E+00
   9.840000      0.0000000E+00
   9.852000      0.0000000E+00
   9.864000      0.0000000E+00
   9.876000      0.0000000E+00
   9.888000      0.0000000E+00
   9.900000      0.0000000E+00
   9.912000      0.0000000E+00
   9.924000      0.0000000E+00
   9.936000      0.0000000E+00
   9.948000      0.0000000E+00
   9.960000      0.0000000E+00
   9.972000      0.0000000E+00
   9.984000      0.0000000E+00
   9.996000      0.0000000E+00
   10.00800      0.0000000E+00
   10.02000      0.0000000E+00
   10.03200      0.0000000E+00
   10.04400      0.0000000E+00
   10.05600      0.0000000E+00
   10.06800      0.0000000E+00
   10.08000      0.0000000E+00
   10.09200      0.0000000E+00
   10.10400      0.0000000E+00
   10.11600      0.0000000E+00
   10.12800      0.0000000E+00
   10.14000      0.0000000E+00
   10.15200      0.0000000E+00
   10.16400      0.0000000E+00
   10.17600      0.0000000E+00
   10.18800      0.0000000E+00
   10.20000      0.0000000E+00
   10.21200      0.0000000E+00
   10.22400      0.0000000E+00
   10.23600      0.0000000E+00
   10.24800      0.0000000E+00
   10.26000      0.0000000E+00
   10.27200      0.0000000E+00
   10.28400      0.0000000E+00
   10.29600      0.0000000E+00
   10.30800      0.0000000E+00
   10.32000      0.0000000E+00
   10.33200      0.0000000E+00
   10.34400      0.0000000E+00
   10.35600      0.0000000E+00
   10.36800      0.0000000E+00
   10.38000     -3.6547033E-38
   10.39200     -7.3018266E-38
   10.40400     -1.0948104E-37
   10.41600     -1.4594324E-37
   10.42800     -1.3248931E-37
   10.44000     -5.4652137E-38
   10.45200      7.8741959E-38
   10.46400      2.1213018E-37
   10.47600      3.4551343E-37
   10.48800      4.3547617E-37
   10.50000      2.8611060E-37
   10.51200      5.3158061E-38
   10.52400     -2.5665138E-37
   10.53600     -6.1993951E-37
   10.54800     -9.7955363E-37
   10.56000     -1.1451352E-36
   10.57200     -9.8613844E-37
   10.58400     -4.9739863E-37
   10.59600      2.5088471E-37
   10.60800      1.0529255E-36
   10.62000      1.8892124E-36
   10.63200      2.4335639E-36
   10.64400      2.5628647E-36
   10.65600      2.2166840E-36
   10.66800      1.4492860E-36
   10.68000      3.8037993E-37
   10.69200     -7.1199163E-37
   10.70400     -1.7864411E-36
   10.71600     -2.6104462E-36
   10.72800     -3.0527292E-36
   10.74000     -2.9831943E-36
   10.75200     -2.4159523E-36
   10.76400     -1.4558354E-36
   10.77600     -4.3628860E-37
   10.78800      5.7762747E-37
   10.80000      1.3254103E-36
   10.81200      1.6611438E-36
   10.82400      1.5126985E-36
   10.83600      9.8785865E-37
   10.84800      4.5539102E-37
   10.86000     -2.1365023E-38
   10.87200     -1.3154975E-37
   10.88400      2.0828261E-37
   10.89600      6.8840991E-37
   10.90800      1.2100634E-36
   10.92000      1.4264922E-36
   10.93200      1.0035953E-36
   10.94400      0.0000000E+00
   10.95600     -1.2435835E-36
   10.96800     -2.3793786E-36
   10.98000     -3.0486795E-36
   10.99200     -2.7710844E-36
   11.00400     -1.4632059E-36
   11.01600      3.9289597E-37
   11.02800      2.2230272E-36
   11.04000      3.5068338E-36
   11.05200      3.8235633E-36
   11.06400      2.9528635E-36
   11.07600      9.2370007E-37
   11.08800     -1.8193435E-36
   11.10000     -4.6828476E-36
   11.11200     -6.9164699E-36
   11.12400     -7.6985409E-36
   11.13600     -6.4199297E-36
   11.14800     -3.0755464E-36
   11.16000      2.1815700E-36
   11.17200      8.8081075E-36
   11.18400      1.6385104E-35
   11.19600      2.4086516E-35
   11.20800      3.1141411E-35
   11.22000      3.6621381E-35
   11.23200      3.9530271E-35
   11.24400      3.8902601E-35
   11.25600      3.3933724E-35
   11.26800      2.3865500E-35
   11.28000      8.7222284E-36
   11.29200     -1.1190270E-35
   11.30400     -3.4792856E-35
   11.31600     -6.0404545E-35
   11.32800     -8.5691943E-35
   11.34000     -1.0800138E-34
   11.35200     -1.2473019E-34
   11.36400     -1.3330872E-34
   11.37600     -1.3200581E-34
   11.38800     -1.1970898E-34
   11.40000     -9.6148654E-35
   11.41200     -6.1683739E-35
   11.42400     -1.7297296E-35
   11.43600      3.5597941E-35
   11.44800      9.4990734E-35
   11.46000      1.5827728E-34
   11.47200      2.2228261E-34