 -2.0000000E-02    1.0000000E-24
 -1.7999999E-02    1.0000000E-24
 -1.6000001E-02    1.0000000E-24
 -1.4000000E-02    1.0000000E-24
 -1.2000000E-02    1.0000000E-24
 -9.9999998E-03    1.0000000E-24
 -8.0000004E-03    1.0000000E-24
 -6.0000001E-03    1.0000000E-24
 -4.0000002E-03    1.0000000E-24
 -2.0000001E-03    1.0000000E-24
  0.0000000E+00    1.0000000E-24
  2.0000001E-03    1.0000000E-24
  4.0000002E-03    1.0000000E-24
  6.0000001E-03    1.0000000E-24
  8.0000004E-03    1.0000000E-24
  9.9999998E-03    1.0000000E-24
  1.2000000E-02    1.0000000E-24
  1.4000000E-02    1.0000000E-24
  1.6000001E-02    1.0000000E-24
  1.7999999E-02    1.0000000E-24
  2.0000000E-02    1.0000000E-24
  2.2000000E-02    1.0000000E-24
  2.4000000E-02    1.0000000E-24
  2.6000001E-02    1.0000000E-24
  2.8000001E-02    1.0000000E-24
  2.9999999E-02    1.0000000E-24
  3.2000002E-02    1.0000000E-24
  3.4000002E-02    1.0000000E-24
  3.5999998E-02    1.0000000E-24
  3.7999999E-02    1.0000000E-24
  3.9999999E-02    1.0000000E-24
  4.1999999E-02    1.0000000E-24
  4.4000000E-02    1.0000000E-24
  4.6000000E-02    1.0000000E-24
  4.8000000E-02    1.0000000E-24
  5.0000001E-02    1.0000000E-24
  5.2000001E-02    1.0000000E-24
  5.4000001E-02    1.0000000E-24
  5.6000002E-02    1.0000000E-24
  5.7999998E-02    1.0000000E-24
  5.9999999E-02    1.0000000E-24
  6.1999999E-02    1.0000000E-24
  6.4000003E-02    1.0000000E-24
  6.6000000E-02    1.0000000E-24
  6.8000004E-02    1.0000000E-24
  7.0000000E-02    1.0000000E-24
  7.1999997E-02    1.0000000E-24
  7.4000001E-02    1.0000000E-24
  7.5999998E-02    1.0000000E-24
  7.8000002E-02    1.0000000E-24
  7.9999998E-02    1.0000000E-24
  8.2000002E-02    1.0000000E-24
  8.3999999E-02    1.0000000E-24
  8.6000003E-02    1.0000000E-24
  8.8000000E-02    1.0000000E-24
  9.0000004E-02    1.0000000E-24
  9.2000000E-02    1.0000000E-24
  9.3999997E-02    1.0000000E-24
  9.6000001E-02    1.0000000E-24
  9.7999997E-02    1.0000000E-24
  0.1000000        1.0000000E-24
  0.1020000        1.0000000E-24
  0.1040000        1.0000000E-24
  0.1060000        1.0000000E-24
  0.1080000        1.0000000E-24
  0.1100000        1.0000000E-24
  0.1120000        1.0000000E-24
  0.1140000        1.0000000E-24
  0.1160000        1.0000000E-24
  0.1180000        1.0000000E-24
  0.1200000        1.0000000E-24
  0.1220000        1.0000000E-24
  0.1240000        1.0000000E-24
  0.1260000        1.0000000E-24
  0.1280000        1.0000000E-24
  0.1300000        1.0000000E-24
  0.1320000        1.0000000E-24
  0.1340000        1.0000000E-24
  0.1360000        1.0000000E-24
  0.1380000        1.0000000E-24
  0.1400000        1.0000000E-24
  0.1420000        1.0000000E-24
  0.1440000        1.0000000E-24
  0.1460000        1.0000000E-24
  0.1480000        1.0000000E-24
  0.1500000        1.0000000E-24
  0.1520000        9.9999992E-25
  0.1540000        9.9999992E-25
  0.1560000        9.9999992E-25
  0.1580000        9.9999992E-25
  0.1600000        9.9999992E-25
  0.1620000        9.9999992E-25
  0.1640000        9.9999992E-25
  0.1660000        9.9999992E-25
  0.1680000        9.9999992E-25
  0.1700000        9.9999992E-25
  0.1720000        9.9999992E-25
  0.1740000        9.9999992E-25
  0.1760000        9.9999992E-25
  0.1780000        9.9999992E-25
  0.1800000        9.9999992E-25
  0.1820000        9.9999992E-25
  0.1840000        9.9999992E-25
  0.1860000        9.9999992E-25
  0.1880000        9.9999992E-25
  0.1900000        9.9999992E-25
  0.1920000        9.9999992E-25
  0.1940000        9.9999992E-25
  0.1960000        9.9999992E-25
  0.1980000        9.9999992E-25
  0.2000000        9.9999992E-25
  0.2020000        9.9999992E-25
  0.2040000        9.9999992E-25
  0.2060000        9.9999992E-25
  0.2080000        9.9999992E-25
  0.2100000        9.9999982E-25
  0.2120000        9.9999972E-25
  0.2140000        9.9999972E-25
  0.2160000        9.9999972E-25
  0.2180000        9.9999972E-25
  0.2200000        9.9999972E-25
  0.2220000        9.9999972E-25
  0.2240000        9.9999972E-25
  0.2260000        9.9999972E-25
  0.2280000        9.9999972E-25
  0.2300000        9.9999972E-25
  0.2320000        9.9999972E-25
  0.2340000        9.9999972E-25
  0.2360000        9.9999972E-25
  0.2380000        9.9999972E-25
  0.2400000        9.9999972E-25
  0.2420000        9.9999972E-25
  0.2440000        9.9999972E-25
  0.2460000        9.9999972E-25
  0.2480000        9.9999972E-25
  0.2500000        9.9999972E-25
  0.2520000        9.9999972E-25
  0.2540000        9.9999972E-25
  0.2560000        9.9999972E-25
  0.2580000        9.9999972E-25
  0.2600000        9.9999982E-25
  0.2620000        9.9999992E-25
  0.2640000        1.0000000E-24
  0.2660000        1.0000001E-24
  0.2680000        1.0000002E-24
  0.2700000        1.0000002E-24
  0.2720000        1.0000002E-24
  0.2740000        1.0000002E-24
  0.2760000        1.0000002E-24
  0.2780000        1.0000002E-24
  0.2800000        1.0000002E-24
  0.2820000        1.0000002E-24
  0.2840000        1.0000002E-24
  0.2860000        1.0000002E-24
  0.2880000        1.0000002E-24
  0.2900000        1.0000002E-24
  0.2920000        1.0000002E-24
  0.2940000        1.0000002E-24
  0.2960000        1.0000002E-24
  0.2980000        1.0000002E-24
  0.3000000        1.0000002E-24
  0.3020000        1.0000002E-24
  0.3040000        1.0000002E-24
  0.3060000        1.0000002E-24
  0.3080000        1.0000002E-24
  0.3100000        1.0000002E-24
  0.3120000        1.0000002E-24
  0.3140000        1.0000002E-24
  0.3160000        1.0000002E-24
  0.3180000        1.0000002E-24
  0.3200000        1.0000002E-24
  0.3220000        1.0000002E-24
  0.3240000        1.0000002E-24
  0.3260000        1.0000002E-24
  0.3280000        1.0000002E-24
  0.3300000        1.0000002E-24
  0.3320000        1.0000002E-24
  0.3340000        1.0000002E-24
  0.3360000        1.0000002E-24
  0.3380000        1.0000002E-24
  0.3400000        1.0000002E-24
  0.3420000        1.0000002E-24
  0.3440000        1.0000002E-24
  0.3460000        1.0000002E-24
  0.3480000        1.0000002E-24
  0.3500000        1.0000001E-24
  0.3520000        1.0000001E-24
  0.3540000        1.0000001E-24
  0.3560000        1.0000001E-24
  0.3580000        1.0000001E-24
  0.3600000        1.0000001E-24
  0.3620000        1.0000002E-24
  0.3640000        1.0000002E-24
  0.3660000        1.0000002E-24
  0.3680000        1.0000002E-24
  0.3700000        1.0000002E-24
  0.3720000        1.0000002E-24
  0.3740000        1.0000002E-24
  0.3760000        1.0000002E-24
  0.3780000        1.0000002E-24
  0.3800000        1.0000002E-24
  0.3820000        1.0000002E-24
  0.3840000        1.0000002E-24
  0.3860000        1.0000003E-24
  0.3880000        1.0000003E-24
  0.3900000        1.0000003E-24
  0.3920000        1.0000003E-24
  0.3940000        1.0000003E-24
  0.3960000        1.0000003E-24
  0.3980000        1.0000003E-24
  0.4000000        1.0000003E-24
  0.4020000        1.0000003E-24
  0.4040000        1.0000003E-24
  0.4060000        1.0000003E-24
  0.4080000        1.0000003E-24
  0.4100000        1.0000003E-24
  0.4120000        1.0000003E-24
  0.4140000        1.0000003E-24
  0.4160000        1.0000002E-24
  0.4180000        1.0000001E-24
  0.4200000        1.0000000E-24
  0.4220000        1.0000000E-24
  0.4240000        1.0000000E-24
  0.4260000        1.0000000E-24
  0.4280000        1.0000000E-24
  0.4300000        1.0000000E-24
  0.4320000        1.0000000E-24
  0.4340000        9.9999992E-25
  0.4360000        1.0000000E-24
  0.4380000        1.0000000E-24
  0.4400000        1.0000000E-24
  0.4420000        1.0000000E-24
  0.4440000        1.0000000E-24
  0.4460000        1.0000000E-24
  0.4480000        1.0000000E-24
  0.4500000        1.0000000E-24
  0.4520000        1.0000000E-24
  0.4540000        1.0000000E-24
  0.4560000        1.0000000E-24
  0.4580000        1.0000000E-24
  0.4600000        1.0000000E-24
  0.4620000        1.0000000E-24
  0.4640000        1.0000000E-24
  0.4660000        1.0000000E-24
  0.4680000        1.0000000E-24
  0.4700000        1.0000000E-24
  0.4720000        1.0000000E-24
  0.4740000        1.0000000E-24
  0.4760000        1.0000000E-24
  0.4780000        1.0000000E-24
  0.4800000        1.0000000E-24
  0.4820000        1.0000000E-24
  0.4840000        1.0000000E-24
  0.4860000        9.9999992E-25
  0.4880000        9.9999992E-25
  0.4900000        9.9999992E-25
  0.4920000        9.9999992E-25
  0.4940000        9.9999992E-25
  0.4960000        9.9999992E-25
  0.4980000        9.9999992E-25
  0.5000000        9.9999992E-25
  0.5020000        9.9999992E-25
  0.5040000        9.9999992E-25
  0.5060000        9.9999992E-25
  0.5080000        9.9999992E-25
  0.5100000        9.9999992E-25
  0.5120000        1.0000000E-24
  0.5140000        1.0000000E-24
  0.5160000        1.0000000E-24
  0.5180000        1.0000000E-24
  0.5200000        1.0000000E-24
  0.5220000        1.0000000E-24
  0.5240000        1.0000000E-24
  0.5260000        1.0000000E-24
  0.5280000        1.0000000E-24
  0.5300000        1.0000000E-24
  0.5320000        1.0000000E-24
  0.5340000        1.0000000E-24
  0.5360000        1.0000000E-24
  0.5380000        1.0000000E-24
  0.5400000        1.0000000E-24
  0.5420000        1.0000000E-24
  0.5440000        1.0000000E-24
  0.5460000        1.0000000E-24
  0.5480000        1.0000000E-24
  0.5500000        1.0000000E-24
  0.5520000        1.0000000E-24
  0.5540000        1.0000000E-24
  0.5560000        1.0000000E-24
  0.5580000        1.0000000E-24
  0.5600000        1.0000000E-24
  0.5620000        1.0000000E-24
  0.5640000        1.0000000E-24
  0.5660000        1.0000000E-24
  0.5680000        1.0000000E-24
  0.5700000        1.0000000E-24
  0.5720000        1.0000000E-24
  0.5740000        1.0000000E-24
  0.5760000        1.0000000E-24
  0.5780000        1.0000000E-24
  0.5800000        1.0000000E-24
  0.5820000        1.0000000E-24
  0.5840000        1.0000000E-24
  0.5860000        1.0000000E-24
  0.5880000        1.0000001E-24
  0.5900000        1.0000001E-24
  0.5920000        1.0000001E-24
  0.5940000        1.0000001E-24
  0.5960000        1.0000001E-24
  0.5980000        1.0000001E-24
  0.6000000        1.0000001E-24
  0.6020000        1.0000001E-24
  0.6040000        1.0000001E-24
  0.6060000        1.0000002E-24
  0.6080000        1.0000002E-24
  0.6100000        1.0000002E-24
  0.6120000        1.0000002E-24
  0.6140000        1.0000002E-24
  0.6160000        1.0000002E-24
  0.6180000        1.0000002E-24
  0.6200000        1.0000002E-24
  0.6220000        1.0000002E-24
  0.6240000        1.0000002E-24
  0.6260000        1.0000002E-24
  0.6280000        1.0000002E-24
  0.6300000        1.0000002E-24
  0.6320000        1.0000002E-24
  0.6340000        1.0000002E-24
  0.6360000        1.0000002E-24
  0.6380000        1.0000002E-24
  0.6400000        1.0000002E-24
  0.6420000        1.0000002E-24
  0.6440000        1.0000002E-24
  0.6460000        1.0000002E-24
  0.6480000        1.0000002E-24
  0.6500000        1.0000002E-24
  0.6520000        1.0000002E-24
  0.6540000        1.0000002E-24
  0.6560000        1.0000002E-24
  0.6580000        1.0000002E-24
  0.6600000        1.0000002E-24
  0.6620000        1.0000002E-24
  0.6640000        1.0000002E-24
  0.6660000        1.0000002E-24
  0.6680000        1.0000002E-24
  0.6700000        1.0000002E-24
  0.6720000        1.0000002E-24
  0.6740000        1.0000002E-24
  0.6760000        1.0000002E-24
  0.6780000        1.0000002E-24
  0.6800000        1.0000002E-24
  0.6820000        1.0000002E-24
  0.6840000        1.0000002E-24
  0.6860000        1.0000002E-24
  0.6880000        1.0000001E-24
  0.6900000        1.0000001E-24
  0.6920000        1.0000001E-24
  0.6940000        1.0000001E-24
  0.6960000        1.0000001E-24
  0.6980000        1.0000001E-24
  0.7000000        1.0000001E-24
  0.7020000        1.0000001E-24
  0.7040000        1.0000001E-24
  0.7060000        1.0000001E-24
  0.7080000        1.0000001E-24
  0.7100000        1.0000001E-24
  0.7120000        1.0000001E-24
  0.7140000        1.0000001E-24
  0.7160000        1.0000001E-24
  0.7180000        1.0000001E-24
  0.7200000        1.0000001E-24
  0.7220000        1.0000001E-24
  0.7240000        1.0000001E-24
  0.7260000        1.0000001E-24
  0.7280000        1.0000001E-24
  0.7300000        1.0000001E-24
  0.7320000        1.0000001E-24
  0.7340000        1.0000001E-24
  0.7360000        1.0000001E-24
  0.7380000        1.0000001E-24
  0.7400000        1.0000001E-24
  0.7420000        1.0000001E-24
  0.7440000        1.0000001E-24
  0.7460000        1.0000001E-24
  0.7480000        1.0000001E-24
  0.7500000        1.0000001E-24
  0.7520000        1.0000001E-24
  0.7540000        1.0000001E-24
  0.7560000        1.0000001E-24
  0.7580000        1.0000001E-24
  0.7600000        1.0000001E-24
  0.7620000        1.0000001E-24
  0.7640000        1.0000001E-24
  0.7660000        1.0000001E-24
  0.7680000        1.0000001E-24
  0.7700000        1.0000001E-24
  0.7720000        1.0000001E-24
  0.7740000        1.0000001E-24
  0.7760000        1.0000001E-24
  0.7780000        1.0000001E-24
  0.7800000        1.0000001E-24
  0.7820000        1.0000001E-24
  0.7840000        1.0000001E-24
  0.7860000        1.0000001E-24
  0.7880000        1.0000001E-24
  0.7900000        1.0000001E-24
  0.7920000        1.0000001E-24
  0.7940000        1.0000001E-24
  0.7960000        1.0000001E-24
  0.7980000        1.0000001E-24
  0.8000000        1.0000001E-24
  0.8020000        1.0000001E-24
  0.8040000        1.0000001E-24
  0.8060000        1.0000001E-24
  0.8080000        1.0000001E-24
  0.8100000        1.0000001E-24
  0.8120000        1.0000001E-24
  0.8140000        1.0000001E-24
  0.8160000        1.0000001E-24
  0.8180000        1.0000001E-24
  0.8200000        1.0000001E-24
  0.8220000        1.0000000E-24
  0.8240000        1.0000000E-24
  0.8260000        1.0000000E-24
  0.8280000        1.0000000E-24
  0.8300000        1.0000000E-24
  0.8320000        1.0000000E-24
  0.8340000        1.0000000E-24
  0.8360000        1.0000000E-24
  0.8380000        1.0000000E-24
  0.8400000        1.0000000E-24
  0.8420000        1.0000000E-24
  0.8440000        1.0000000E-24
  0.8460000        1.0000000E-24
  0.8480000        1.0000000E-24
  0.8500000        1.0000000E-24
  0.8520000        1.0000000E-24
  0.8540000        1.0000000E-24
  0.8560000        1.0000000E-24
  0.8580000        1.0000000E-24
  0.8600000        1.0000000E-24
  0.8620000        9.9999992E-25
  0.8640000        9.9999992E-25
  0.8660000        9.9999992E-25
  0.8680000        9.9999992E-25
  0.8700000        9.9999992E-25
  0.8720000        9.9999992E-25
  0.8740000        9.9999992E-25
  0.8760000        9.9999992E-25
  0.8780000        9.9999992E-25
  0.8800000        1.0000000E-24
  0.8820000        1.0000000E-24
  0.8840000        1.0000000E-24
  0.8860000        1.0000000E-24
  0.8880000        1.0000000E-24
  0.8900000        1.0000000E-24
  0.8920000        1.0000000E-24
  0.8940000        1.0000000E-24
  0.8960000        1.0000000E-24
  0.8980000        1.0000000E-24
  0.9000000        1.0000000E-24
  0.9020000        1.0000000E-24
  0.9040000        1.0000000E-24
  0.9060000        1.0000000E-24
  0.9080000        1.0000000E-24
  0.9100000        1.0000000E-24
  0.9120000        1.0000000E-24
  0.9140000        1.0000000E-24
  0.9160000        1.0000000E-24
  0.9180000        1.0000000E-24
  0.9200000        1.0000000E-24
  0.9220000        1.0000000E-24
  0.9240000        1.0000000E-24
  0.9260000        1.0000001E-24
  0.9280000        1.0000001E-24
  0.9300000        1.0000001E-24
  0.9320000        1.0000001E-24
  0.9340000        1.0000001E-24
  0.9360000        1.0000001E-24
  0.9380000        1.0000001E-24
  0.9400000        1.0000001E-24
  0.9420000        1.0000001E-24
  0.9440000        1.0000001E-24
  0.9460000        1.0000001E-24
  0.9480000        1.0000000E-24
  0.9500000        1.0000000E-24
  0.9520000        1.0000000E-24
  0.9540000        1.0000000E-24
  0.9560000        9.9999992E-25
  0.9580000        9.9999982E-25
  0.9600000        9.9999982E-25
  0.9620000        9.9999982E-25
  0.9640000        9.9999982E-25
  0.9660000        9.9999982E-25
  0.9680000        9.9999982E-25
  0.9700000        9.9999992E-25
  0.9720000        9.9999992E-25
  0.9740000        9.9999992E-25
  0.9760000        9.9999992E-25
  0.9780000        9.9999992E-25
  0.9800000        9.9999992E-25
  0.9820000        9.9999982E-25
  0.9840000        9.9999982E-25
  0.9860000        9.9999972E-25
  0.9880000        9.9999963E-25
  0.9900000        9.9999953E-25
  0.9920000        9.9999943E-25
  0.9940000        9.9999933E-25
  0.9960000        9.9999923E-25
  0.9980000        9.9999913E-25
   1.000000        9.9999903E-25
   1.002000        9.9999893E-25
   1.004000        9.9999893E-25
   1.006000        9.9999893E-25
   1.008000        9.9999893E-25
   1.010000        9.9999893E-25
   1.012000        9.9999893E-25
   1.014000        9.9999893E-25
   1.016000        9.9999893E-25
   1.018000        9.9999893E-25
   1.020000        9.9999893E-25
   1.022000        9.9999893E-25
   1.024000        9.9999893E-25
   1.026000        9.9999893E-25
   1.028000        9.9999893E-25
   1.030000        9.9999893E-25
   1.032000        9.9999893E-25
   1.034000        9.9999893E-25
   1.036000        9.9999903E-25
   1.038000        9.9999913E-25
   1.040000        9.9999923E-25
   1.042000        9.9999943E-25
   1.044000        9.9999953E-25
   1.046000        9.9999963E-25
   1.048000        9.9999972E-25
   1.050000        9.9999982E-25
   1.052000        9.9999992E-25
   1.054000        1.0000000E-24
   1.056000        1.0000001E-24
   1.058000        1.0000001E-24
   1.060000        1.0000001E-24
   1.062000        1.0000001E-24
   1.064000        1.0000001E-24
   1.066000        1.0000001E-24
   1.068000        1.0000002E-24
   1.070000        1.0000003E-24
   1.072000        1.0000003E-24
   1.074000        1.0000004E-24
   1.076000        1.0000005E-24
   1.078000        1.0000006E-24
   1.080000        1.0000007E-24
   1.082000        1.0000008E-24
   1.084000        1.0000009E-24
   1.086000        1.0000010E-24
   1.088000        1.0000011E-24
   1.090000        1.0000011E-24
   1.092000        1.0000011E-24
   1.094000        1.0000011E-24
   1.096000        1.0000011E-24
   1.098000        1.0000011E-24
   1.100000        1.0000011E-24
   1.102000        1.0000012E-24
   1.104000        1.0000012E-24
   1.106000        1.0000012E-24
   1.108000        1.0000011E-24
   1.110000        1.0000010E-24
   1.112000        1.0000009E-24
   1.114000        1.0000008E-24
   1.116000        1.0000007E-24
   1.118000        1.0000006E-24
   1.120000        1.0000005E-24
   1.122000        1.0000004E-24
   1.124000        1.0000003E-24
   1.126000        1.0000001E-24
   1.128000        1.0000000E-24
   1.130000        9.9999992E-25
   1.132000        9.9999982E-25
   1.134000        9.9999972E-25
   1.136000        9.9999963E-25
   1.138000        9.9999953E-25
   1.140000        9.9999943E-25
   1.142000        9.9999933E-25
   1.144000        9.9999923E-25
   1.146000        9.9999923E-25
   1.148000        9.9999913E-25
   1.150000        9.9999903E-25
   1.152000        9.9999893E-25
   1.154000        9.9999884E-25
   1.156000        9.9999884E-25
   1.158000        9.9999884E-25
   1.160000        9.9999884E-25
   1.162000        9.9999893E-25
   1.164000        9.9999884E-25
   1.166000        9.9999884E-25
   1.168000        9.9999884E-25
   1.170000        9.9999884E-25
   1.172000        9.9999884E-25
   1.174000        9.9999884E-25
   1.176000        9.9999884E-25
   1.178000        9.9999874E-25
   1.180000        9.9999874E-25
   1.182000        9.9999874E-25
   1.184000        9.9999864E-25
   1.186000        9.9999864E-25
   1.188000        9.9999874E-25
   1.190000        9.9999884E-25
   1.192000        9.9999884E-25
   1.194000        9.9999893E-25
   1.196000        9.9999903E-25
   1.198000        9.9999913E-25
   1.200000        9.9999913E-25
   1.202000        9.9999923E-25
   1.204000        9.9999933E-25
   1.206000        9.9999943E-25
   1.208000        9.9999943E-25
   1.210000        9.9999953E-25
   1.212000        9.9999963E-25
   1.214000        9.9999972E-25
   1.216000        9.9999992E-25
   1.218000        1.0000000E-24
   1.220000        1.0000001E-24
   1.222000        1.0000002E-24
   1.224000        1.0000003E-24
   1.226000        1.0000004E-24
   1.228000        1.0000005E-24
   1.230000        1.0000005E-24
   1.232000        1.0000006E-24
   1.234000        1.0000007E-24
   1.236000        1.0000007E-24
   1.238000        1.0000007E-24
   1.240000        1.0000008E-24
   1.242000        1.0000008E-24
   1.244000        1.0000008E-24
   1.246000        1.0000008E-24
   1.248000        1.0000008E-24
   1.250000        1.0000008E-24
   1.252000        1.0000008E-24
   1.254000        1.0000008E-24
   1.256000        1.0000008E-24
   1.258000        1.0000008E-24
   1.260000        1.0000008E-24
   1.262000        1.0000008E-24
   1.264000        1.0000009E-24
   1.266000        1.0000009E-24
   1.268000        1.0000009E-24
   1.270000        1.0000009E-24
   1.272000        1.0000009E-24
   1.274000        1.0000009E-24
   1.276000        1.0000009E-24
   1.278000        1.0000009E-24
   1.280000        1.0000009E-24
   1.282000        1.0000008E-24
   1.284000        1.0000007E-24
   1.286000        1.0000007E-24
   1.288000        1.0000006E-24
   1.290000        1.0000005E-24
   1.292000        1.0000004E-24
   1.294000        1.0000003E-24
   1.296000        1.0000002E-24
   1.298000        1.0000001E-24
   1.300000        1.0000000E-24
   1.302000        9.9999992E-25
   1.304000        9.9999982E-25
   1.306000        9.9999972E-25
   1.308000        9.9999972E-25
   1.310000        9.9999963E-25
   1.312000        9.9999953E-25
   1.314000        9.9999943E-25
   1.316000        9.9999933E-25
   1.318000        9.9999923E-25
   1.320000        9.9999913E-25
   1.322000        9.9999903E-25
   1.324000        9.9999893E-25
   1.326000        9.9999884E-25
   1.328000        9.9999874E-25
   1.330000        9.9999864E-25
   1.332000        9.9999864E-25
   1.334000        9.9999874E-25
   1.336000        9.9999874E-25
   1.338000        9.9999874E-25
   1.340000        9.9999874E-25
   1.342000        9.9999874E-25
   1.344000        9.9999874E-25
   1.346000        9.9999874E-25
   1.348000        9.9999874E-25
   1.350000        9.9999874E-25
   1.352000        9.9999874E-25
   1.354000        9.9999874E-25
   1.356000        9.9999874E-25
   1.358000        9.9999874E-25
   1.360000        9.9999874E-25
   1.362000        9.9999874E-25
   1.364000        9.9999874E-25
   1.366000        9.9999864E-25
   1.368000        9.9999864E-25
   1.370000        9.9999864E-25
   1.372000        9.9999864E-25
   1.374000        9.9999864E-25
   1.376000        9.9999854E-25
   1.378000        9.9999864E-25
   1.380000        9.9999874E-25
   1.382000        9.9999884E-25
   1.384000        9.9999893E-25
   1.386000        9.9999893E-25
   1.388000        9.9999903E-25
   1.390000        9.9999913E-25
   1.392000        9.9999923E-25
   1.394000        9.9999933E-25
   1.396000        9.9999953E-25
   1.398000        9.9999972E-25
   1.400000        9.9999982E-25
   1.402000        1.0000000E-24
   1.404000        1.0000002E-24
   1.406000        1.0000004E-24
   1.408000        1.0000005E-24
   1.410000        1.0000006E-24
   1.412000        1.0000006E-24
   1.414000        1.0000007E-24
   1.416000        1.0000008E-24
   1.418000        1.0000009E-24
   1.420000        1.0000009E-24
   1.422000        1.0000009E-24
   1.424000        1.0000009E-24
   1.426000        1.0000009E-24
   1.428000        1.0000009E-24
   1.430000        1.0000009E-24
   1.432000        1.0000009E-24
   1.434000        1.0000008E-24
   1.436000        1.0000007E-24
   1.438000        1.0000006E-24
   1.440000        1.0000005E-24
   1.442000        1.0000004E-24
   1.444000        1.0000003E-24
   1.446000        1.0000002E-24
   1.448000        1.0000003E-24
   1.450000        1.0000003E-24
   1.452000        1.0000003E-24
   1.454000        1.0000003E-24
   1.456000        1.0000003E-24
   1.458000        1.0000004E-24
   1.460000        1.0000004E-24
   1.462000        1.0000004E-24
   1.464000        1.0000004E-24
   1.466000        1.0000004E-24
   1.468000        1.0000004E-24
   1.470000        1.0000004E-24
   1.472000        1.0000005E-24
   1.474000        1.0000005E-24
   1.476000        1.0000005E-24
   1.478000        1.0000005E-24
   1.480000        1.0000005E-24
   1.482000        1.0000005E-24
   1.484000        1.0000004E-24
   1.486000        1.0000003E-24
   1.488000        1.0000002E-24
   1.490000        1.0000002E-24
   1.492000        1.0000001E-24
   1.494000        1.0000000E-24
   1.496000        9.9999992E-25
   1.498000        9.9999992E-25
   1.500000        9.9999992E-25
   1.502000        1.0000000E-24
   1.504000        1.0000000E-24
   1.506000        1.0000000E-24
   1.508000        1.0000000E-24
   1.510000        1.0000000E-24
   1.512000        1.0000000E-24
   1.514000        1.0000000E-24
   1.516000        1.0000000E-24
   1.518000        1.0000000E-24
   1.520000        1.0000000E-24
   1.522000        1.0000000E-24
   1.524000        1.0000000E-24
   1.526000        1.0000000E-24
   1.528000        1.0000000E-24
   1.530000        1.0000000E-24
   1.532000        1.0000000E-24
   1.534000        1.0000000E-24
   1.536000        1.0000000E-24
   1.538000        1.0000000E-24
   1.540000        1.0000001E-24
   1.542000        1.0000001E-24
   1.544000        1.0000001E-24
   1.546000        1.0000001E-24
   1.548000        1.0000001E-24
   1.550000        1.0000001E-24
   1.552000        1.0000001E-24
   1.554000        1.0000001E-24
   1.556000        1.0000001E-24
   1.558000        1.0000001E-24
   1.560000        1.0000001E-24
   1.562000        1.0000001E-24
   1.564000        1.0000001E-24
   1.566000        1.0000001E-24
   1.568000        1.0000001E-24
   1.570000        1.0000001E-24
   1.572000        1.0000000E-24
   1.574000        9.9999992E-25
   1.576000        9.9999982E-25
   1.578000        9.9999972E-25
   1.580000        9.9999963E-25
   1.582000        9.9999953E-25
   1.584000        9.9999943E-25
   1.586000        9.9999933E-25
   1.588000        9.9999933E-25
   1.590000        9.9999933E-25
   1.592000        9.9999933E-25
   1.594000        9.9999933E-25
   1.596000        9.9999943E-25
   1.598000        9.9999943E-25
   1.600000        9.9999943E-25
   1.602000        9.9999943E-25
   1.604000        9.9999943E-25
   1.606000        9.9999943E-25
   1.608000        9.9999943E-25
   1.610000        9.9999953E-25
   1.612000        9.9999953E-25
   1.614000        9.9999963E-25
   1.616000        9.9999972E-25
   1.618000        9.9999982E-25
   1.620000        9.9999992E-25
   1.622000        1.0000000E-24
   1.624000        1.0000000E-24
   1.626000        1.0000001E-24
   1.628000        1.0000002E-24
   1.630000        1.0000003E-24
   1.632000        1.0000004E-24
   1.634000        1.0000004E-24
   1.636000        1.0000005E-24
   1.638000        1.0000006E-24
   1.640000        1.0000007E-24
   1.642000        1.0000008E-24
   1.644000        1.0000009E-24
   1.646000        1.0000010E-24
   1.648000        1.0000011E-24
   1.650000        1.0000012E-24
   1.652000        1.0000013E-24
   1.654000        1.0000014E-24
   1.656000        1.0000014E-24
   1.658000        1.0000014E-24
   1.660000        1.0000014E-24
   1.662000        1.0000014E-24
   1.664000        1.0000014E-24
   1.666000        1.0000014E-24
   1.668000        1.0000014E-24
   1.670000        1.0000014E-24
   1.672000        1.0000014E-24
   1.674000        1.0000014E-24
   1.676000        1.0000014E-24
   1.678000        1.0000014E-24
   1.680000        1.0000014E-24
   1.682000        1.0000013E-24
   1.684000        1.0000012E-24
   1.686000        1.0000012E-24
   1.688000        1.0000011E-24
   1.690000        1.0000010E-24
   1.692000        1.0000010E-24
   1.694000        1.0000009E-24
   1.696000        1.0000008E-24
   1.698000        1.0000007E-24
   1.700000        1.0000007E-24
   1.702000        1.0000006E-24
   1.704000        1.0000005E-24
   1.706000        1.0000004E-24
   1.708000        1.0000003E-24
   1.710000        1.0000004E-24
   1.712000        1.0000004E-24
   1.714000        1.0000004E-24
   1.716000        1.0000004E-24
   1.718000        1.0000004E-24
   1.720000        1.0000004E-24
   1.722000        1.0000004E-24
   1.724000        1.0000003E-24
   1.726000        1.0000002E-24
   1.728000        1.0000001E-24
   1.730000        9.9999992E-25
   1.732000        9.9999992E-25
   1.734000        9.9999992E-25
   1.736000        9.9999992E-25
   1.738000        9.9999992E-25
   1.740000        9.9999982E-25
   1.742000        9.9999982E-25
   1.744000        9.9999982E-25
   1.746000        9.9999982E-25
   1.748000        9.9999982E-25
   1.750000        9.9999982E-25
   1.752000        9.9999982E-25
   1.754000        9.9999982E-25
   1.756000        9.9999972E-25
   1.758000        9.9999972E-25
   1.760000        9.9999972E-25
   1.762000        9.9999972E-25
   1.764000        9.9999972E-25
   1.766000        9.9999963E-25
   1.768000        9.9999963E-25
   1.770000        9.9999963E-25
   1.772000        9.9999953E-25
   1.774000        9.9999953E-25
   1.776000        9.9999953E-25
   1.778000        9.9999943E-25
   1.780000        9.9999943E-25
   1.782000        9.9999943E-25
   1.784000        9.9999933E-25
   1.786000        9.9999933E-25
   1.788000        9.9999933E-25
   1.790000        9.9999923E-25
   1.792000        9.9999923E-25
   1.794000        9.9999923E-25
   1.796000        9.9999923E-25