 -2.0000000E-02    1.0000000E-24
 -1.7999999E-02    1.0000000E-24
 -1.6000001E-02    1.0000000E-24
 -1.4000000E-02    1.0000000E-24
 -1.2000000E-02    1.0000000E-24
 -9.9999998E-03    1.0000000E-24
 -8.0000004E-03    1.0000000E-24
 -6.0000001E-03    1.0000000E-24
 -4.0000002E-03    1.0000000E-24
 -2.0000001E-03    1.0000000E-24
  0.0000000E+00    1.0000000E-24
  2.0000001E-03    1.0000000E-24
  4.0000002E-03    1.0000000E-24
  6.0000001E-03    1.0000000E-24
  8.0000004E-03    1.0000000E-24
  9.9999998E-03    1.0000000E-24
  1.2000000E-02    1.0000000E-24
  1.4000000E-02    1.0000000E-24
  1.6000001E-02    1.0000000E-24
  1.7999999E-02    1.0000000E-24
  2.0000000E-02    1.0000000E-24
  2.2000000E-02    1.0000000E-24
  2.4000000E-02    1.0000000E-24
  2.6000001E-02    1.0000000E-24
  2.8000001E-02    1.0000000E-24
  2.9999999E-02    1.0000000E-24
  3.2000002E-02    1.0000000E-24
  3.4000002E-02    1.0000000E-24
  3.5999998E-02    1.0000000E-24
  3.7999999E-02    1.0000000E-24
  3.9999999E-02    1.0000000E-24
  4.1999999E-02    1.0000000E-24
  4.4000000E-02    1.0000000E-24
  4.6000000E-02    1.0000000E-24
  4.8000000E-02    1.0000000E-24
  5.0000001E-02    1.0000000E-24
  5.2000001E-02    1.0000000E-24
  5.4000001E-02    1.0000000E-24
  5.6000002E-02    1.0000000E-24
  5.7999998E-02    1.0000000E-24
  5.9999999E-02    1.0000000E-24
  6.1999999E-02    1.0000000E-24
  6.4000003E-02    1.0000000E-24
  6.6000000E-02    1.0000000E-24
  6.8000004E-02    1.0000000E-24
  7.0000000E-02    1.0000000E-24
  7.1999997E-02    1.0000000E-24
  7.4000001E-02    1.0000000E-24
  7.5999998E-02    1.0000001E-24
  7.8000002E-02    1.0000001E-24
  7.9999998E-02    1.0000001E-24
  8.2000002E-02    1.0000001E-24
  8.3999999E-02    1.0000001E-24
  8.6000003E-02    1.0000001E-24
  8.8000000E-02    1.0000001E-24
  9.0000004E-02    1.0000001E-24
  9.2000000E-02    1.0000001E-24
  9.3999997E-02    1.0000001E-24
  9.6000001E-02    1.0000001E-24
  9.7999997E-02    1.0000001E-24
  0.1000000        1.0000001E-24
  0.1020000        1.0000001E-24
  0.1040000        1.0000000E-24
  0.1060000        1.0000000E-24
  0.1080000        1.0000001E-24
  0.1100000        1.0000002E-24
  0.1120000        1.0000003E-24
  0.1140000        1.0000004E-24
  0.1160000        1.0000005E-24
  0.1180000        1.0000004E-24
  0.1200000        1.0000004E-24
  0.1220000        1.0000004E-24
  0.1240000        1.0000005E-24
  0.1260000        1.0000005E-24
  0.1280000        1.0000004E-24
  0.1300000        1.0000005E-24
  0.1320000        1.0000005E-24
  0.1340000        1.0000005E-24
  0.1360000        1.0000005E-24
  0.1380000        1.0000005E-24
  0.1400000        1.0000005E-24
  0.1420000        1.0000005E-24
  0.1440000        1.0000005E-24
  0.1460000        1.0000005E-24
  0.1480000        1.0000005E-24
  0.1500000        1.0000005E-24
  0.1520000        1.0000005E-24
  0.1540000        1.0000005E-24
  0.1560000        1.0000005E-24
  0.1580000        1.0000005E-24
  0.1600000        1.0000005E-24
  0.1620000        1.0000005E-24
  0.1640000        1.0000005E-24
  0.1660000        1.0000005E-24
  0.1680000        1.0000005E-24
  0.1700000        1.0000005E-24
  0.1720000        1.0000005E-24
  0.1740000        1.0000005E-24
  0.1760000        1.0000005E-24
  0.1780000        1.0000005E-24
  0.1800000        1.0000005E-24
  0.1820000        1.0000005E-24
  0.1840000        1.0000005E-24
  0.1860000        1.0000004E-24
  0.1880000        1.0000003E-24
  0.1900000        1.0000002E-24
  0.1920000        1.0000002E-24
  0.1940000        1.0000002E-24
  0.1960000        1.0000002E-24
  0.1980000        1.0000002E-24
  0.2000000        1.0000002E-24
  0.2020000        1.0000002E-24
  0.2040000        1.0000002E-24
  0.2060000        1.0000002E-24
  0.2080000        1.0000002E-24
  0.2100000        1.0000002E-24
  0.2120000        1.0000002E-24
  0.2140000        1.0000002E-24
  0.2160000        1.0000002E-24
  0.2180000        1.0000002E-24
  0.2200000        1.0000002E-24
  0.2220000        1.0000002E-24
  0.2240000        1.0000002E-24
  0.2260000        1.0000002E-24
  0.2280000        1.0000001E-24
  0.2300000        1.0000001E-24
  0.2320000        1.0000001E-24
  0.2340000        1.0000002E-24
  0.2360000        1.0000002E-24
  0.2380000        1.0000002E-24
  0.2400000        1.0000002E-24
  0.2420000        1.0000002E-24
  0.2440000        1.0000002E-24
  0.2460000        1.0000002E-24
  0.2480000        1.0000002E-24
  0.2500000        1.0000002E-24
  0.2520000        1.0000002E-24
  0.2540000        1.0000002E-24
  0.2560000        1.0000002E-24
  0.2580000        1.0000002E-24
  0.2600000        1.0000002E-24
  0.2620000        1.0000003E-24
  0.2640000        1.0000003E-24
  0.2660000        1.0000004E-24
  0.2680000        1.0000005E-24
  0.2700000        1.0000005E-24
  0.2720000        1.0000005E-24
  0.2740000        1.0000005E-24
  0.2760000        1.0000005E-24
  0.2780000        1.0000005E-24
  0.2800000        1.0000005E-24
  0.2820000        1.0000005E-24
  0.2840000        1.0000005E-24
  0.2860000        1.0000005E-24
  0.2880000        1.0000005E-24
  0.2900000        1.0000005E-24
  0.2920000        1.0000005E-24
  0.2940000        1.0000005E-24
  0.2960000        1.0000005E-24
  0.2980000        1.0000005E-24
  0.3000000        1.0000005E-24
  0.3020000        1.0000005E-24
  0.3040000        1.0000005E-24
  0.3060000        1.0000005E-24
  0.3080000        1.0000004E-24
  0.3100000        1.0000003E-24
  0.3120000        1.0000002E-24
  0.3140000        1.0000001E-24
  0.3160000        1.0000000E-24
  0.3180000        1.0000000E-24
  0.3200000        1.0000000E-24
  0.3220000        1.0000000E-24
  0.3240000        1.0000000E-24
  0.3260000        1.0000000E-24
  0.3280000        1.0000000E-24
  0.3300000        1.0000000E-24
  0.3320000        1.0000000E-24
  0.3340000        1.0000000E-24
  0.3360000        1.0000000E-24
  0.3380000        1.0000000E-24
  0.3400000        1.0000000E-24
  0.3420000        1.0000000E-24
  0.3440000        1.0000000E-24
  0.3460000        1.0000000E-24
  0.3480000        1.0000000E-24
  0.3500000        1.0000000E-24
  0.3520000        1.0000000E-24
  0.3540000        1.0000000E-24
  0.3560000        1.0000001E-24
  0.3580000        1.0000001E-24
  0.3600000        1.0000001E-24
  0.3620000        1.0000001E-24
  0.3640000        1.0000001E-24
  0.3660000        1.0000001E-24
  0.3680000        1.0000002E-24
  0.3700000        1.0000002E-24
  0.3720000        1.0000002E-24
  0.3740000        1.0000002E-24
  0.3760000        1.0000002E-24
  0.3780000        1.0000002E-24
  0.3800000        1.0000002E-24
  0.3820000        1.0000002E-24
  0.3840000        1.0000002E-24
  0.3860000        1.0000002E-24
  0.3880000        1.0000002E-24
  0.3900000        1.0000002E-24
  0.3920000        1.0000002E-24
  0.3940000        1.0000002E-24
  0.3960000        1.0000002E-24
  0.3980000        1.0000002E-24
  0.4000000        1.0000002E-24
  0.4020000        1.0000002E-24
  0.4040000        1.0000002E-24
  0.4060000        1.0000002E-24
  0.4080000        1.0000002E-24
  0.4100000        1.0000002E-24
  0.4120000        1.0000002E-24
  0.4140000        1.0000002E-24
  0.4160000        1.0000002E-24
  0.4180000        1.0000000E-24
  0.4200000        9.9999992E-25
  0.4220000        9.9999982E-25
  0.4240000        9.9999972E-25
  0.4260000        9.9999963E-25
  0.4280000        9.9999963E-25
  0.4300000        9.9999963E-25
  0.4320000        9.9999963E-25
  0.4340000        9.9999963E-25
  0.4360000        9.9999963E-25
  0.4380000        9.9999963E-25
  0.4400000        9.9999963E-25
  0.4420000        9.9999963E-25
  0.4440000        9.9999963E-25
  0.4460000        9.9999963E-25
  0.4480000        9.9999972E-25
  0.4500000        9.9999982E-25
  0.4520000        9.9999992E-25
  0.4540000        1.0000000E-24
  0.4560000        1.0000001E-24
  0.4580000        1.0000001E-24
  0.4600000        1.0000002E-24
  0.4620000        1.0000002E-24
  0.4640000        1.0000002E-24
  0.4660000        1.0000002E-24
  0.4680000        1.0000002E-24
  0.4700000        1.0000002E-24
  0.4720000        1.0000002E-24
  0.4740000        1.0000002E-24
  0.4760000        1.0000002E-24
  0.4780000        1.0000001E-24
  0.4800000        1.0000000E-24
  0.4820000        9.9999992E-25
  0.4840000        9.9999982E-25
  0.4860000        9.9999972E-25
  0.4880000        9.9999972E-25
  0.4900000        9.9999963E-25
  0.4920000        9.9999963E-25
  0.4940000        9.9999963E-25
  0.4960000        9.9999963E-25
  0.4980000        9.9999963E-25
  0.5000000        9.9999963E-25
  0.5020000        9.9999963E-25
  0.5040000        9.9999963E-25
  0.5060000        9.9999963E-25
  0.5080000        9.9999963E-25
  0.5100000        9.9999963E-25
  0.5120000        9.9999963E-25
  0.5140000        9.9999963E-25
  0.5160000        9.9999963E-25
  0.5180000        9.9999963E-25
  0.5200000        9.9999963E-25
  0.5220000        9.9999963E-25
  0.5240000        9.9999963E-25
  0.5260000        9.9999972E-25
  0.5280000        9.9999972E-25
  0.5300000        9.9999972E-25
  0.5320000        9.9999972E-25
  0.5340000        9.9999982E-25
  0.5360000        9.9999982E-25
  0.5380000        9.9999982E-25
  0.5400000        9.9999982E-25
  0.5420000        9.9999982E-25
  0.5440000        9.9999982E-25
  0.5460000        9.9999982E-25
  0.5480000        9.9999982E-25
  0.5500000        9.9999982E-25
  0.5520000        9.9999982E-25
  0.5540000        9.9999992E-25
  0.5560000        9.9999992E-25
  0.5580000        9.9999992E-25
  0.5600000        9.9999992E-25
  0.5620000        9.9999992E-25
  0.5640000        9.9999992E-25
  0.5660000        9.9999992E-25
  0.5680000        9.9999992E-25
  0.5700000        9.9999992E-25
  0.5720000        9.9999992E-25
  0.5740000        9.9999992E-25
  0.5760000        9.9999982E-25
  0.5780000        9.9999982E-25
  0.5800000        9.9999982E-25
  0.5820000        9.9999982E-25
  0.5840000        9.9999982E-25
  0.5860000        9.9999982E-25
  0.5880000        9.9999982E-25
  0.5900000        9.9999982E-25
  0.5920000        9.9999982E-25
  0.5940000        9.9999982E-25
  0.5960000        9.9999982E-25
  0.5980000        9.9999982E-25
  0.6000000        9.9999982E-25
  0.6020000        9.9999992E-25
  0.6040000        9.9999992E-25
  0.6060000        9.9999992E-25
  0.6080000        9.9999992E-25
  0.6100000        9.9999992E-25
  0.6120000        9.9999992E-25
  0.6140000        9.9999992E-25
  0.6160000        9.9999992E-25
  0.6180000        9.9999992E-25
  0.6200000        9.9999992E-25
  0.6220000        9.9999992E-25
  0.6240000        9.9999992E-25
  0.6260000        9.9999992E-25
  0.6280000        9.9999992E-25
  0.6300000        9.9999992E-25
  0.6320000        9.9999992E-25
  0.6340000        9.9999992E-25
  0.6360000        9.9999982E-25
  0.6380000        9.9999982E-25
  0.6400000        9.9999982E-25
  0.6420000        9.9999982E-25
  0.6440000        9.9999982E-25
  0.6460000        9.9999982E-25
  0.6480000        9.9999982E-25
  0.6500000        9.9999982E-25
  0.6520000        9.9999982E-25
  0.6540000        9.9999982E-25
  0.6560000        9.9999982E-25
  0.6580000        9.9999992E-25
  0.6600000        1.0000000E-24
  0.6620000        1.0000001E-24
  0.6640000        1.0000001E-24
  0.6660000        1.0000001E-24
  0.6680000        1.0000002E-24
  0.6700000        1.0000002E-24
  0.6720000        1.0000002E-24
  0.6740000        1.0000002E-24
  0.6760000        1.0000002E-24
  0.6780000        1.0000003E-24
  0.6800000        1.0000003E-24
  0.6820000        1.0000003E-24
  0.6840000        1.0000003E-24
  0.6860000        1.0000003E-24
  0.6880000        1.0000003E-24
  0.6900000        1.0000003E-24
  0.6920000        1.0000002E-24
  0.6940000        1.0000002E-24
  0.6960000        1.0000001E-24
  0.6980000        1.0000000E-24
  0.7000000        9.9999992E-25
  0.7020000        9.9999982E-25
  0.7040000        9.9999972E-25
  0.7060000        9.9999953E-25
  0.7080000        9.9999953E-25
  0.7100000        9.9999953E-25
  0.7120000        9.9999953E-25
  0.7140000        9.9999953E-25
  0.7160000        9.9999953E-25
  0.7180000        9.9999953E-25
  0.7200000        9.9999953E-25
  0.7220000        9.9999953E-25
  0.7240000        9.9999953E-25
  0.7260000        9.9999953E-25
  0.7280000        9.9999953E-25
  0.7300000        9.9999963E-25
  0.7320000        9.9999963E-25
  0.7340000        9.9999963E-25
  0.7360000        9.9999963E-25
  0.7380000        9.9999963E-25
  0.7400000        9.9999972E-25
  0.7420000        9.9999982E-25
  0.7440000        9.9999992E-25
  0.7460000        1.0000000E-24
  0.7480000        1.0000000E-24
  0.7500000        1.0000000E-24
  0.7520000        1.0000000E-24
  0.7540000        1.0000000E-24
  0.7560000        1.0000000E-24
  0.7580000        9.9999992E-25
  0.7600000        9.9999992E-25
  0.7620000        9.9999992E-25
  0.7640000        9.9999992E-25
  0.7660000        9.9999982E-25
  0.7680000        9.9999982E-25
  0.7700000        9.9999972E-25
  0.7720000        9.9999963E-25
  0.7740000        9.9999953E-25
  0.7760000        9.9999943E-25
  0.7780000        9.9999943E-25
  0.7800000        9.9999943E-25
  0.7820000        9.9999943E-25
  0.7840000        9.9999943E-25
  0.7860000        9.9999943E-25
  0.7880000        9.9999943E-25
  0.7900000        9.9999953E-25
  0.7920000        9.9999953E-25
  0.7940000        9.9999953E-25
  0.7960000        9.9999953E-25
  0.7980000        9.9999963E-25
  0.8000000        9.9999972E-25
  0.8020000        9.9999982E-25
  0.8040000        9.9999992E-25
  0.8060000        1.0000000E-24
  0.8080000        1.0000000E-24
  0.8100000        1.0000000E-24
  0.8120000        1.0000000E-24
  0.8140000        1.0000000E-24
  0.8160000        1.0000000E-24
  0.8180000        1.0000000E-24
  0.8200000        1.0000000E-24
  0.8220000        1.0000000E-24
  0.8240000        1.0000000E-24
  0.8260000        9.9999992E-25
  0.8280000        9.9999992E-25
  0.8300000        9.9999992E-25
  0.8320000        9.9999992E-25
  0.8340000        9.9999992E-25
  0.8360000        9.9999992E-25
  0.8380000        1.0000000E-24
  0.8400000        1.0000001E-24
  0.8420000        1.0000002E-24
  0.8440000        1.0000003E-24
  0.8460000        1.0000004E-24
  0.8480000        1.0000005E-24
  0.8500000        1.0000006E-24
  0.8520000        1.0000006E-24
  0.8540000        1.0000006E-24
  0.8560000        1.0000006E-24
  0.8580000        1.0000007E-24
  0.8600000        1.0000007E-24
  0.8620000        1.0000007E-24
  0.8640000        1.0000007E-24
  0.8660000        1.0000006E-24
  0.8680000        1.0000005E-24
  0.8700000        1.0000004E-24
  0.8720000        1.0000004E-24
  0.8740000        1.0000003E-24
  0.8760000        1.0000002E-24
  0.8780000        1.0000001E-24
  0.8800000        1.0000000E-24
  0.8820000        1.0000000E-24
  0.8840000        1.0000000E-24
  0.8860000        1.0000000E-24
  0.8880000        1.0000000E-24
  0.8900000        1.0000000E-24
  0.8920000        1.0000000E-24
  0.8940000        1.0000000E-24
  0.8960000        1.0000000E-24
  0.8980000        1.0000001E-24
  0.9000000        1.0000002E-24
  0.9020000        1.0000003E-24
  0.9040000        1.0000004E-24
  0.9060000        1.0000005E-24
  0.9080000        1.0000005E-24
  0.9100000        1.0000006E-24
  0.9120000        1.0000006E-24
  0.9140000        1.0000006E-24
  0.9160000        1.0000006E-24
  0.9180000        1.0000006E-24
  0.9200000        1.0000006E-24
  0.9220000        1.0000006E-24
  0.9240000        1.0000006E-24
  0.9260000        1.0000006E-24
  0.9280000        1.0000006E-24
  0.9300000        1.0000006E-24
  0.9320000        1.0000006E-24
  0.9340000        1.0000006E-24
  0.9360000        1.0000006E-24
  0.9380000        1.0000006E-24
  0.9400000        1.0000005E-24
  0.9420000        1.0000004E-24
  0.9440000        1.0000003E-24
  0.9460000        1.0000002E-24
  0.9480000        1.0000001E-24
  0.9500000        1.0000000E-24
  0.9520000        9.9999992E-25
  0.9540000        9.9999982E-25
  0.9560000        9.9999972E-25
  0.9580000        9.9999963E-25
  0.9600000        9.9999953E-25
  0.9620000        9.9999943E-25
  0.9640000        9.9999933E-25
  0.9660000        9.9999923E-25
  0.9680000        9.9999923E-25
  0.9700000        9.9999923E-25
  0.9720000        9.9999923E-25
  0.9740000        9.9999923E-25
  0.9760000        9.9999923E-25
  0.9780000        9.9999923E-25
  0.9800000        9.9999923E-25
  0.9820000        9.9999923E-25
  0.9840000        9.9999923E-25
  0.9860000        9.9999923E-25
  0.9880000        9.9999923E-25
  0.9900000        9.9999923E-25
  0.9920000        9.9999923E-25
  0.9940000        9.9999923E-25
  0.9960000        9.9999923E-25
  0.9980000        9.9999923E-25
   1.000000        9.9999923E-25
   1.002000        9.9999923E-25
   1.004000        9.9999923E-25
   1.006000        9.9999923E-25
   1.008000        9.9999923E-25
   1.010000        9.9999923E-25
   1.012000        9.9999923E-25
   1.014000        9.9999923E-25
   1.016000        9.9999923E-25
   1.018000        9.9999933E-25
   1.020000        9.9999943E-25
   1.022000        9.9999953E-25
   1.024000        9.9999963E-25
   1.026000        9.9999972E-25
   1.028000        9.9999982E-25
   1.030000        1.0000000E-24
   1.032000        1.0000001E-24
   1.034000        1.0000001E-24
   1.036000        1.0000001E-24
   1.038000        1.0000000E-24
   1.040000        1.0000000E-24
   1.042000        1.0000000E-24
   1.044000        1.0000000E-24
   1.046000        1.0000000E-24
   1.048000        1.0000000E-24
   1.050000        1.0000000E-24
   1.052000        1.0000000E-24
   1.054000        9.9999992E-25
   1.056000        9.9999982E-25
   1.058000        9.9999972E-25
   1.060000        9.9999963E-25
   1.062000        9.9999943E-25
   1.064000        9.9999943E-25
   1.066000        9.9999943E-25
   1.068000        9.9999943E-25
   1.070000        9.9999943E-25
   1.072000        9.9999943E-25
   1.074000        9.9999943E-25
   1.076000        9.9999943E-25
   1.078000        9.9999943E-25
   1.080000        9.9999953E-25
   1.082000        9.9999953E-25
   1.084000        9.9999953E-25
   1.086000        9.9999953E-25
   1.088000        9.9999953E-25
   1.090000        9.9999953E-25
   1.092000        9.9999953E-25
   1.094000        9.9999953E-25
   1.096000        9.9999953E-25
   1.098000        9.9999953E-25
   1.100000        9.9999953E-25
   1.102000        9.9999953E-25
   1.104000        9.9999953E-25
   1.106000        9.9999953E-25
   1.108000        9.9999953E-25
   1.110000        9.9999953E-25
   1.112000        9.9999953E-25
   1.114000        9.9999953E-25
   1.116000        9.9999943E-25
   1.118000        9.9999943E-25
   1.120000        9.9999943E-25
   1.122000        9.9999953E-25
   1.124000        9.9999953E-25
   1.126000        9.9999953E-25
   1.128000        9.9999953E-25
   1.130000        9.9999953E-25
   1.132000        9.9999953E-25
   1.134000        9.9999953E-25
   1.136000        9.9999953E-25
   1.138000        9.9999953E-25
   1.140000        9.9999953E-25
   1.142000        9.9999963E-25
   1.144000        9.9999963E-25
   1.146000        9.9999963E-25
   1.148000        9.9999963E-25
   1.150000        9.9999963E-25
   1.152000        9.9999963E-25
   1.154000        9.9999963E-25
   1.156000        9.9999963E-25
   1.158000        9.9999963E-25
   1.160000        9.9999963E-25
   1.162000        9.9999963E-25
   1.164000        9.9999963E-25
   1.166000        9.9999963E-25
   1.168000        9.9999963E-25
   1.170000        9.9999963E-25
   1.172000        9.9999963E-25
   1.174000        9.9999963E-25
   1.176000        9.9999963E-25
   1.178000        9.9999963E-25
   1.180000        9.9999963E-25
   1.182000        9.9999963E-25
   1.184000        9.9999963E-25
   1.186000        9.9999972E-25
   1.188000        9.9999982E-25
   1.190000        9.9999982E-25
   1.192000        9.9999982E-25
   1.194000        9.9999982E-25
   1.196000        9.9999982E-25
   1.198000        9.9999982E-25
   1.200000        9.9999992E-25
   1.202000        1.0000000E-24
   1.204000        1.0000001E-24
   1.206000        1.0000001E-24
   1.208000        1.0000001E-24
   1.210000        1.0000001E-24
   1.212000        1.0000001E-24
   1.214000        1.0000001E-24
   1.216000        1.0000001E-24
   1.218000        1.0000001E-24
   1.220000        1.0000001E-24
   1.222000        1.0000000E-24
   1.224000        1.0000000E-24
   1.226000        1.0000000E-24
   1.228000        1.0000000E-24
   1.230000        1.0000000E-24
   1.232000        1.0000000E-24
   1.234000        1.0000000E-24
   1.236000        1.0000000E-24
   1.238000        1.0000000E-24
   1.240000        1.0000000E-24
   1.242000        1.0000000E-24
   1.244000        1.0000000E-24
   1.246000        1.0000000E-24
   1.248000        1.0000000E-24
   1.250000        1.0000000E-24
   1.252000        1.0000000E-24
   1.254000        1.0000000E-24
   1.256000        1.0000000E-24
   1.258000        1.0000000E-24
   1.260000        1.0000000E-24
   1.262000        1.0000000E-24
   1.264000        1.0000000E-24
   1.266000        1.0000000E-24
   1.268000        1.0000000E-24
   1.270000        1.0000000E-24
   1.272000        1.0000000E-24
   1.274000        1.0000000E-24
   1.276000        1.0000000E-24
   1.278000        1.0000000E-24
   1.280000        1.0000000E-24
   1.282000        9.9999992E-25
   1.284000        9.9999992E-25
   1.286000        9.9999992E-25
   1.288000        9.9999992E-25
   1.290000        9.9999992E-25
   1.292000        9.9999992E-25
   1.294000        9.9999992E-25
   1.296000        9.9999992E-25
   1.298000        9.9999992E-25
   1.300000        9.9999992E-25
   1.302000        9.9999992E-25
   1.304000        9.9999982E-25
   1.306000        9.9999982E-25
   1.308000        9.9999982E-25
   1.310000        9.9999982E-25
   1.312000        9.9999982E-25
   1.314000        9.9999982E-25
   1.316000        9.9999992E-25
   1.318000        1.0000000E-24
   1.320000        1.0000001E-24
   1.322000        1.0000002E-24
   1.324000        1.0000003E-24
   1.326000        1.0000004E-24
   1.328000        1.0000005E-24
   1.330000        1.0000006E-24
   1.332000        1.0000007E-24
   1.334000        1.0000008E-24
   1.336000        1.0000009E-24
   1.338000        1.0000009E-24
   1.340000        1.0000009E-24
   1.342000        1.0000009E-24
   1.344000        1.0000009E-24
   1.346000        1.0000010E-24
   1.348000        1.0000010E-24
   1.350000        1.0000009E-24
   1.352000        1.0000008E-24
   1.354000        1.0000008E-24
   1.356000        1.0000007E-24
   1.358000        1.0000006E-24
   1.360000        1.0000005E-24
   1.362000        1.0000004E-24
   1.364000        1.0000003E-24
   1.366000        1.0000002E-24
   1.368000        1.0000001E-24
   1.370000        1.0000001E-24
   1.372000        1.0000001E-24
   1.374000        1.0000001E-24
   1.376000        1.0000001E-24
   1.378000        1.0000001E-24
   1.380000        1.0000001E-24
   1.382000        1.0000001E-24
   1.384000        1.0000001E-24
   1.386000        1.0000001E-24
   1.388000        1.0000001E-24
   1.390000        1.0000001E-24
   1.392000        1.0000001E-24
   1.394000        1.0000001E-24
   1.396000        1.0000001E-24
   1.398000        1.0000001E-24
   1.400000        1.0000001E-24
   1.402000        1.0000001E-24
   1.404000        1.0000001E-24
   1.406000        1.0000001E-24
   1.408000        1.0000001E-24
   1.410000        1.0000001E-24
   1.412000        1.0000001E-24
   1.414000        1.0000001E-24
   1.416000        1.0000001E-24
   1.418000        1.0000001E-24
   1.420000        1.0000001E-24
   1.422000        1.0000001E-24
   1.424000        1.0000001E-24
   1.426000        1.0000001E-24
   1.428000        1.0000001E-24
   1.430000        1.0000000E-24
   1.432000        9.9999992E-25
   1.434000        9.9999982E-25
   1.436000        9.9999972E-25
   1.438000        9.9999972E-25
   1.440000        9.9999963E-25
   1.442000        9.9999953E-25
   1.444000        9.9999943E-25
   1.446000        9.9999933E-25
   1.448000        9.9999923E-25
   1.450000        9.9999923E-25
   1.452000        9.9999933E-25
   1.454000        9.9999933E-25
   1.456000        9.9999933E-25
   1.458000        9.9999933E-25
   1.460000        9.9999943E-25
   1.462000        9.9999953E-25
   1.464000        9.9999963E-25
   1.466000        9.9999972E-25
   1.468000        9.9999982E-25
   1.470000        9.9999992E-25
   1.472000        1.0000000E-24
   1.474000        1.0000001E-24
   1.476000        1.0000001E-24
   1.478000        1.0000002E-24
   1.480000        1.0000003E-24
   1.482000        1.0000004E-24
   1.484000        1.0000005E-24
   1.486000        1.0000005E-24
   1.488000        1.0000005E-24
   1.490000        1.0000005E-24
   1.492000        1.0000004E-24
   1.494000        1.0000003E-24
   1.496000        1.0000002E-24
   1.498000        1.0000001E-24
   1.500000        1.0000000E-24
   1.502000        9.9999992E-25
   1.504000        9.9999982E-25
   1.506000        9.9999972E-25
   1.508000        9.9999963E-25
   1.510000        9.9999953E-25
   1.512000        9.9999943E-25
   1.514000        9.9999933E-25
   1.516000        9.9999933E-25
   1.518000        9.9999913E-25
   1.520000        9.9999913E-25
   1.522000        9.9999913E-25
   1.524000        9.9999913E-25
   1.526000        9.9999913E-25
   1.528000        9.9999903E-25
   1.530000        9.9999913E-25
   1.532000        9.9999923E-25
   1.534000        9.9999933E-25
   1.536000        9.9999943E-25
   1.538000        9.9999953E-25
   1.540000        9.9999963E-25
   1.542000        9.9999963E-25
   1.544000        9.9999972E-25
   1.546000        9.9999992E-25
   1.548000        1.0000001E-24
   1.550000        1.0000002E-24
   1.552000        1.0000003E-24
   1.554000        1.0000004E-24
   1.556000        1.0000005E-24
   1.558000        1.0000006E-24
   1.560000        1.0000007E-24
   1.562000        1.0000008E-24
   1.564000        1.0000008E-24
   1.566000        1.0000009E-24
   1.568000        1.0000009E-24
   1.570000        1.0000009E-24
   1.572000        1.0000008E-24
   1.574000        1.0000007E-24
   1.576000        1.0000006E-24
   1.578000        1.0000005E-24
   1.580000        1.0000004E-24
   1.582000        1.0000003E-24
   1.584000        1.0000002E-24
   1.586000        1.0000001E-24
   1.588000        1.0000000E-24
   1.590000        9.9999992E-25
   1.592000        9.9999982E-25
   1.594000        9.9999972E-25
   1.596000        9.9999963E-25
   1.598000        9.9999953E-25
   1.600000        9.9999943E-25
   1.602000        9.9999943E-25
   1.604000        9.9999943E-25
   1.606000        9.9999943E-25
   1.608000        9.9999943E-25
   1.610000        9.9999943E-25
   1.612000        9.9999953E-25
   1.614000        9.9999963E-25
   1.616000        9.9999972E-25
   1.618000        9.9999982E-25
   1.620000        9.9999992E-25
   1.622000        1.0000000E-24
   1.624000        1.0000001E-24
   1.626000        1.0000002E-24
   1.628000        1.0000003E-24
   1.630000        1.0000003E-24
   1.632000        1.0000003E-24
   1.634000        1.0000003E-24
   1.636000        1.0000003E-24
   1.638000        1.0000003E-24
   1.640000        1.0000002E-24
   1.642000        1.0000001E-24
   1.644000        1.0000000E-24
   1.646000        9.9999992E-25
   1.648000        9.9999982E-25
   1.650000        9.9999972E-25
   1.652000        9.9999963E-25
   1.654000        9.9999953E-25
   1.656000        9.9999943E-25
   1.658000        9.9999933E-25
   1.660000        9.9999933E-25
   1.662000        9.9999933E-25
   1.664000        9.9999933E-25
   1.666000        9.9999933E-25
   1.668000        9.9999933E-25
   1.670000        9.9999933E-25
   1.672000        9.9999933E-25
   1.674000        9.9999943E-25
   1.676000        9.9999943E-25
   1.678000        9.9999943E-25
   1.680000        9.9999933E-25
   1.682000        9.9999933E-25
   1.684000        9.9999943E-25
   1.686000        9.9999953E-25
   1.688000        9.9999963E-25
   1.690000        9.9999972E-25
   1.692000        9.9999972E-25
   1.694000        9.9999972E-25
   1.696000        9.9999972E-25
   1.698000        9.9999972E-25
   1.700000        9.9999972E-25
   1.702000        9.9999972E-25
   1.704000        9.9999972E-25
   1.706000        9.9999982E-25
   1.708000        9.9999982E-25
   1.710000        9.9999982E-25
   1.712000        9.9999992E-25
   1.714000        9.9999992E-25
   1.716000        9.9999992E-25
   1.718000        1.0000000E-24
   1.720000        1.0000000E-24
   1.722000        1.0000001E-24
   1.724000        1.0000002E-24
   1.726000        1.0000003E-24
   1.728000        1.0000004E-24
   1.730000        1.0000005E-24
   1.732000        1.0000006E-24
   1.734000        1.0000006E-24
   1.736000        1.0000005E-24
   1.738000        1.0000005E-24
   1.740000        1.0000005E-24
   1.742000        1.0000005E-24
   1.744000        1.0000004E-24
   1.746000        1.0000004E-24
   1.748000        1.0000004E-24
   1.750000        1.0000003E-24
   1.752000        1.0000002E-24
   1.754000        1.0000001E-24
   1.756000        1.0000000E-24
   1.758000        9.9999982E-25
   1.760000        9.9999972E-25
   1.762000        9.9999972E-25
   1.764000        9.9999972E-25
   1.766000        9.9999972E-25
   1.768000        9.9999972E-25
   1.770000        9.9999972E-25
   1.772000        9.9999972E-25
   1.774000        9.9999972E-25
   1.776000        9.9999972E-25
   1.778000        9.9999972E-25
   1.780000        9.9999972E-25
   1.782000        9.9999972E-25
   1.784000        9.9999982E-25
   1.786000        9.9999982E-25
   1.788000        9.9999982E-25
   1.790000        9.9999982E-25
   1.792000        9.9999982E-25
   1.794000        9.9999982E-25
   1.796000        9.9999972E-25