 -5.9999999E-02  0.0000000E+00
 -5.4000001E-02  0.0000000E+00
 -4.8000000E-02  0.0000000E+00
 -4.1999999E-02  0.0000000E+00
 -3.5999998E-02  0.0000000E+00
 -2.9999999E-02  0.0000000E+00
 -2.4000000E-02  0.0000000E+00
 -1.7999999E-02  0.0000000E+00
 -1.2000000E-02  0.0000000E+00
 -6.0000001E-03  0.0000000E+00
  3.4694470E-18  0.0000000E+00
  6.0000001E-03  0.0000000E+00
  1.2000000E-02  0.0000000E+00
  1.7999999E-02  0.0000000E+00
  2.4000000E-02  0.0000000E+00
  2.9999999E-02  0.0000000E+00
  3.5999998E-02  0.0000000E+00
  4.1999999E-02  0.0000000E+00
  4.8000000E-02  0.0000000E+00
  5.4000001E-02  0.0000000E+00
  5.9999999E-02  0.0000000E+00
  6.6000000E-02  0.0000000E+00
  7.1999997E-02  0.0000000E+00
  7.8000002E-02  0.0000000E+00
  8.3999999E-02  0.0000000E+00
  9.0000004E-02  0.0000000E+00
  9.6000001E-02  0.0000000E+00
  0.1020000      0.0000000E+00
  0.1080000      0.0000000E+00
  0.1140000      0.0000000E+00
  0.1200000      0.0000000E+00
  0.1260000      0.0000000E+00
  0.1320000      0.0000000E+00
  0.1380000      0.0000000E+00
  0.1440000      0.0000000E+00
  0.1500000      0.0000000E+00
  0.1560000      0.0000000E+00
  0.1620000      0.0000000E+00
  0.1680000      0.0000000E+00
  0.1740000      0.0000000E+00
  0.1800000      0.0000000E+00
  0.1860000      0.0000000E+00
  0.1920000      0.0000000E+00
  0.1980000      0.0000000E+00
  0.2040000      0.0000000E+00
  0.2100000      0.0000000E+00
  0.2160000      0.0000000E+00
  0.2220000      0.0000000E+00
  0.2280000      0.0000000E+00
  0.2340000      0.0000000E+00
  0.2400000      0.0000000E+00
  0.2460000      0.0000000E+00
  0.2520000      0.0000000E+00
  0.2580000      0.0000000E+00
  0.2640000      0.0000000E+00
  0.2700000      0.0000000E+00
  0.2760000      0.0000000E+00
  0.2820000      0.0000000E+00
  0.2880000      0.0000000E+00
  0.2940000      0.0000000E+00
  0.3000000      0.0000000E+00
  0.3060000      0.0000000E+00
  0.3120000      0.0000000E+00
  0.3180000      0.0000000E+00
  0.3240000      0.0000000E+00
  0.3300000      0.0000000E+00
  0.3360000      0.0000000E+00
  0.3420000      0.0000000E+00
  0.3480000      0.0000000E+00
  0.3540000      0.0000000E+00
  0.3600000      0.0000000E+00
  0.3660000      0.0000000E+00
  0.3720000      0.0000000E+00
  0.3780000      0.0000000E+00
  0.3840000      0.0000000E+00
  0.3900000      0.0000000E+00
  0.3960000      0.0000000E+00
  0.4020000      0.0000000E+00
  0.4080000      0.0000000E+00
  0.4140000      0.0000000E+00
  0.4200000      0.0000000E+00
  0.4260000      0.0000000E+00
  0.4320000      0.0000000E+00
  0.4380000      0.0000000E+00
  0.4440000      0.0000000E+00
  0.4500000      0.0000000E+00
  0.4560000      0.0000000E+00
  0.4620000      0.0000000E+00
  0.4680000      0.0000000E+00
  0.4740000      0.0000000E+00
  0.4800000      0.0000000E+00
  0.4860000      0.0000000E+00
  0.4920000      0.0000000E+00
  0.4980000      0.0000000E+00
  0.5040000      0.0000000E+00
  0.5100000      0.0000000E+00
  0.5160000      0.0000000E+00
  0.5220000      0.0000000E+00
  0.5280000      0.0000000E+00
  0.5340000      0.0000000E+00
  0.5400000      0.0000000E+00
  0.5460000      0.0000000E+00
  0.5520000      0.0000000E+00
  0.5580000      0.0000000E+00
  0.5640000      0.0000000E+00
  0.5700000      0.0000000E+00
  0.5760000      0.0000000E+00
  0.5820000      0.0000000E+00
  0.5880000      0.0000000E+00
  0.5940000      0.0000000E+00
  0.6000000      0.0000000E+00
  0.6060000      0.0000000E+00
  0.6120000      0.0000000E+00
  0.6180000      0.0000000E+00
  0.6240000      0.0000000E+00
  0.6300000      0.0000000E+00
  0.6360000      0.0000000E+00
  0.6420000      0.0000000E+00
  0.6480000      0.0000000E+00
  0.6540000      0.0000000E+00
  0.6600000      0.0000000E+00
  0.6660000      0.0000000E+00
  0.6720000      0.0000000E+00
  0.6780000      0.0000000E+00
  0.6840000      0.0000000E+00
  0.6900000      0.0000000E+00
  0.6960000      0.0000000E+00
  0.7020000      0.0000000E+00
  0.7080000      0.0000000E+00
  0.7140000      0.0000000E+00
  0.7200000      0.0000000E+00
  0.7260000      0.0000000E+00
  0.7320000      0.0000000E+00
  0.7380000      0.0000000E+00
  0.7440000      0.0000000E+00
  0.7500000      0.0000000E+00
  0.7560000      0.0000000E+00
  0.7620000      0.0000000E+00
  0.7680000      0.0000000E+00
  0.7740000      0.0000000E+00
  0.7800000      0.0000000E+00
  0.7860000      0.0000000E+00
  0.7920000      0.0000000E+00
  0.7980000      0.0000000E+00
  0.8040000      0.0000000E+00
  0.8100000      0.0000000E+00
  0.8160000      0.0000000E+00
  0.8220000      0.0000000E+00
  0.8280000      0.0000000E+00
  0.8340000      0.0000000E+00
  0.8400000      0.0000000E+00
  0.8460000      0.0000000E+00
  0.8520000      0.0000000E+00
  0.8580000      0.0000000E+00
  0.8640000      0.0000000E+00
  0.8700000      0.0000000E+00
  0.8760000      0.0000000E+00
  0.8820000      0.0000000E+00
  0.8880000      0.0000000E+00
  0.8940000      0.0000000E+00
  0.9000000      0.0000000E+00
  0.9060000      0.0000000E+00
  0.9120000      0.0000000E+00
  0.9180000      0.0000000E+00
  0.9240000      0.0000000E+00
  0.9300000      0.0000000E+00
  0.9360000      0.0000000E+00
  0.9420000      0.0000000E+00
  0.9480000      0.0000000E+00
  0.9540000      0.0000000E+00
  0.9600000      0.0000000E+00
  0.9660000      0.0000000E+00
  0.9720000      0.0000000E+00
  0.9780000      0.0000000E+00
  0.9840000      0.0000000E+00
  0.9900000      0.0000000E+00
  0.9960000      0.0000000E+00
   1.002000      0.0000000E+00
   1.008000      0.0000000E+00
   1.014000      0.0000000E+00
   1.020000      0.0000000E+00
   1.026000      0.0000000E+00
   1.032000      0.0000000E+00
   1.038000      0.0000000E+00
   1.044000      0.0000000E+00
   1.050000      0.0000000E+00
   1.056000      0.0000000E+00
   1.062000      0.0000000E+00
   1.068000      0.0000000E+00
   1.074000      0.0000000E+00
   1.080000      0.0000000E+00
   1.086000      0.0000000E+00
   1.092000      0.0000000E+00
   1.098000      0.0000000E+00
   1.104000      0.0000000E+00
   1.110000      0.0000000E+00
   1.116000      0.0000000E+00
   1.122000      0.0000000E+00
   1.128000      0.0000000E+00
   1.134000      0.0000000E+00
   1.140000      0.0000000E+00
   1.146000      0.0000000E+00
   1.152000      0.0000000E+00
   1.158000      0.0000000E+00
   1.164000      0.0000000E+00
   1.170000      0.0000000E+00
   1.176000      0.0000000E+00
   1.182000      0.0000000E+00
   1.188000      0.0000000E+00
   1.194000      0.0000000E+00
   1.200000      0.0000000E+00
   1.206000      0.0000000E+00
   1.212000      0.0000000E+00
   1.218000      0.0000000E+00
   1.224000      0.0000000E+00
   1.230000      0.0000000E+00
   1.236000      0.0000000E+00
   1.242000      0.0000000E+00
   1.248000      0.0000000E+00
   1.254000      0.0000000E+00
   1.260000      0.0000000E+00
   1.266000      0.0000000E+00
   1.272000      0.0000000E+00
   1.278000      0.0000000E+00
   1.284000      0.0000000E+00
   1.290000      0.0000000E+00
   1.296000      0.0000000E+00
   1.302000      0.0000000E+00
   1.308000      0.0000000E+00
   1.314000      0.0000000E+00
   1.320000      0.0000000E+00
   1.326000      0.0000000E+00
   1.332000      0.0000000E+00
   1.338000      0.0000000E+00
   1.344000      0.0000000E+00
   1.350000      0.0000000E+00
   1.356000      0.0000000E+00
   1.362000      0.0000000E+00
   1.368000      0.0000000E+00
   1.374000      0.0000000E+00
   1.380000      0.0000000E+00
   1.386000      0.0000000E+00
   1.392000      0.0000000E+00
   1.398000      0.0000000E+00
   1.404000      0.0000000E+00
   1.410000      0.0000000E+00
   1.416000      0.0000000E+00
   1.422000      0.0000000E+00
   1.428000      0.0000000E+00
   1.434000      0.0000000E+00
   1.440000      0.0000000E+00
   1.446000      0.0000000E+00
   1.452000      0.0000000E+00
   1.458000      0.0000000E+00
   1.464000      0.0000000E+00
   1.470000      0.0000000E+00
   1.476000      0.0000000E+00
   1.482000      0.0000000E+00
   1.488000      0.0000000E+00
   1.494000      0.0000000E+00
   1.500000      0.0000000E+00
   1.506000      0.0000000E+00
   1.512000      0.0000000E+00
   1.518000      0.0000000E+00
   1.524000      0.0000000E+00
   1.530000      0.0000000E+00
   1.536000      0.0000000E+00
   1.542000      0.0000000E+00
   1.548000      0.0000000E+00
   1.554000      0.0000000E+00
   1.560000      0.0000000E+00
   1.566000      0.0000000E+00
   1.572000      0.0000000E+00
   1.578000      0.0000000E+00
   1.584000      0.0000000E+00
   1.590000      0.0000000E+00
   1.596000      0.0000000E+00
   1.602000      0.0000000E+00
   1.608000      0.0000000E+00
   1.614000      0.0000000E+00
   1.620000      0.0000000E+00
   1.626000      0.0000000E+00
   1.632000      0.0000000E+00
   1.638000      0.0000000E+00
   1.644000      0.0000000E+00
   1.650000      0.0000000E+00
   1.656000      0.0000000E+00
   1.662000      0.0000000E+00
   1.668000      0.0000000E+00
   1.674000      0.0000000E+00
   1.680000      0.0000000E+00
   1.686000      0.0000000E+00
   1.692000      0.0000000E+00
   1.698000      0.0000000E+00
   1.704000      0.0000000E+00
   1.710000      0.0000000E+00
   1.716000      0.0000000E+00
   1.722000      0.0000000E+00
   1.728000      0.0000000E+00
   1.734000      0.0000000E+00
   1.740000      0.0000000E+00
   1.746000      0.0000000E+00
   1.752000      0.0000000E+00
   1.758000      0.0000000E+00
   1.764000      0.0000000E+00
   1.770000      0.0000000E+00
   1.776000      0.0000000E+00
   1.782000      0.0000000E+00
   1.788000      0.0000000E+00
   1.794000      0.0000000E+00
   1.800000      0.0000000E+00
   1.806000      0.0000000E+00
   1.812000      0.0000000E+00
   1.818000      0.0000000E+00
   1.824000      0.0000000E+00
   1.830000      0.0000000E+00
   1.836000      0.0000000E+00
   1.842000      0.0000000E+00
   1.848000      0.0000000E+00
   1.854000      0.0000000E+00
   1.860000      0.0000000E+00
   1.866000      0.0000000E+00
   1.872000      0.0000000E+00
   1.878000      0.0000000E+00
   1.884000      0.0000000E+00
   1.890000      0.0000000E+00
   1.896000      0.0000000E+00
   1.902000      0.0000000E+00
   1.908000      0.0000000E+00
   1.914000      0.0000000E+00
   1.920000      0.0000000E+00
   1.926000      0.0000000E+00
   1.932000      0.0000000E+00
   1.938000      0.0000000E+00
   1.944000      0.0000000E+00
   1.950000      0.0000000E+00
   1.956000      0.0000000E+00
   1.962000      0.0000000E+00
   1.968000      0.0000000E+00
   1.974000      0.0000000E+00
   1.980000      0.0000000E+00
   1.986000      0.0000000E+00
   1.992000      0.0000000E+00
   1.998000      0.0000000E+00
   2.004000      0.0000000E+00
   2.010000      0.0000000E+00
   2.016000      0.0000000E+00
   2.022000      0.0000000E+00
   2.028000      0.0000000E+00
   2.034000      0.0000000E+00
   2.040000      0.0000000E+00
   2.046000      0.0000000E+00
   2.052000      0.0000000E+00
   2.058000      0.0000000E+00
   2.064000      0.0000000E+00
   2.070000      0.0000000E+00
   2.076000      0.0000000E+00
   2.082000      0.0000000E+00
   2.088000      0.0000000E+00
   2.094000      0.0000000E+00
   2.100000      0.0000000E+00
   2.106000      0.0000000E+00
   2.112000      0.0000000E+00
   2.118000      0.0000000E+00
   2.124000      0.0000000E+00
   2.130000      0.0000000E+00
   2.136000      0.0000000E+00
   2.142000      0.0000000E+00
   2.148000      0.0000000E+00
   2.154000      0.0000000E+00
   2.160000      0.0000000E+00
   2.166000      0.0000000E+00
   2.172000      0.0000000E+00
   2.178000      0.0000000E+00
   2.184000      0.0000000E+00
   2.190000      0.0000000E+00
   2.196000      0.0000000E+00
   2.202000      0.0000000E+00
   2.208000      0.0000000E+00
   2.214000      0.0000000E+00
   2.220000      0.0000000E+00
   2.226000      0.0000000E+00
   2.232000      0.0000000E+00
   2.238000      0.0000000E+00
   2.244000      0.0000000E+00
   2.250000      0.0000000E+00
   2.256000      0.0000000E+00
   2.262000      0.0000000E+00
   2.268000      0.0000000E+00
   2.274000      0.0000000E+00
   2.280000      0.0000000E+00
   2.286000      0.0000000E+00
   2.292000      0.0000000E+00
   2.298000      0.0000000E+00
   2.304000      0.0000000E+00
   2.310000      0.0000000E+00
   2.316000      0.0000000E+00
   2.322000      0.0000000E+00
   2.328000      0.0000000E+00
   2.334000      0.0000000E+00
   2.340000      0.0000000E+00
   2.346000      0.0000000E+00
   2.352000      0.0000000E+00
   2.358000      0.0000000E+00
   2.364000      0.0000000E+00
   2.370000      0.0000000E+00
   2.376000      0.0000000E+00
   2.382000      0.0000000E+00
   2.388000      0.0000000E+00
   2.394000      0.0000000E+00
   2.400000      0.0000000E+00
   2.406000      0.0000000E+00
   2.412000      0.0000000E+00
   2.418000      0.0000000E+00
   2.424000      0.0000000E+00
   2.430000      0.0000000E+00
   2.436000      0.0000000E+00
   2.442000      0.0000000E+00
   2.448000      0.0000000E+00
   2.454000      0.0000000E+00
   2.460000      0.0000000E+00
   2.466000      0.0000000E+00
   2.472000      0.0000000E+00
   2.478000      0.0000000E+00
   2.484000      0.0000000E+00
   2.490000      0.0000000E+00
   2.496000      0.0000000E+00
   2.502000      0.0000000E+00
   2.508000      0.0000000E+00
   2.514000      0.0000000E+00
   2.520000      0.0000000E+00
   2.526000      0.0000000E+00
   2.532000      0.0000000E+00
   2.538000      0.0000000E+00
   2.544000      0.0000000E+00
   2.550000      0.0000000E+00
   2.556000      0.0000000E+00
   2.562000      0.0000000E+00
   2.568000      0.0000000E+00
   2.574000      0.0000000E+00
   2.580000      0.0000000E+00
   2.586000      0.0000000E+00
   2.592000      0.0000000E+00
   2.598000      0.0000000E+00
   2.604000      0.0000000E+00
   2.610000      0.0000000E+00
   2.616000      0.0000000E+00
   2.622000      0.0000000E+00
   2.628000      0.0000000E+00
   2.634000      0.0000000E+00
   2.640000      0.0000000E+00
   2.646000      0.0000000E+00
   2.652000      0.0000000E+00
   2.658000      0.0000000E+00
   2.664000      0.0000000E+00
   2.670000      0.0000000E+00
   2.676000      0.0000000E+00
   2.682000      0.0000000E+00
   2.688000      0.0000000E+00
   2.694000      0.0000000E+00
   2.700000      0.0000000E+00
   2.706000      0.0000000E+00
   2.712000      0.0000000E+00
   2.718000      0.0000000E+00
   2.724000      0.0000000E+00
   2.730000      0.0000000E+00
   2.736000      0.0000000E+00
   2.742000      0.0000000E+00
   2.748000      0.0000000E+00
   2.754000      0.0000000E+00
   2.760000      0.0000000E+00
   2.766000      0.0000000E+00
   2.772000      0.0000000E+00
   2.778000      0.0000000E+00
   2.784000      0.0000000E+00
   2.790000      0.0000000E+00
   2.796000      0.0000000E+00
   2.802000      0.0000000E+00
   2.808000      0.0000000E+00
   2.814000      0.0000000E+00
   2.820000      0.0000000E+00
   2.826000      0.0000000E+00
   2.832000      0.0000000E+00
   2.838000      0.0000000E+00
   2.844000      0.0000000E+00
   2.850000      0.0000000E+00
   2.856000      0.0000000E+00
   2.862000      0.0000000E+00
   2.868000      0.0000000E+00
   2.874000      0.0000000E+00
   2.880000      0.0000000E+00
   2.886000      0.0000000E+00
   2.892000      0.0000000E+00
   2.898000      0.0000000E+00
   2.904000      0.0000000E+00
   2.910000      0.0000000E+00
   2.916000      0.0000000E+00
   2.922000      0.0000000E+00
   2.928000      0.0000000E+00
   2.934000      0.0000000E+00
   2.940000      0.0000000E+00
   2.946000      0.0000000E+00
   2.952000      0.0000000E+00
   2.958000      0.0000000E+00
   2.964000      0.0000000E+00
   2.970000      0.0000000E+00
   2.976000      0.0000000E+00
   2.982000      0.0000000E+00
   2.988000      0.0000000E+00
   2.994000      0.0000000E+00
   3.000000      0.0000000E+00
   3.006000      0.0000000E+00
   3.012000      0.0000000E+00
   3.018000      0.0000000E+00
   3.024000      0.0000000E+00
   3.030000      0.0000000E+00
   3.036000      0.0000000E+00
   3.042000      0.0000000E+00
   3.048000      0.0000000E+00
   3.054000      0.0000000E+00
   3.060000      0.0000000E+00
   3.066000      0.0000000E+00
   3.072000      0.0000000E+00
   3.078000      0.0000000E+00
   3.084000      0.0000000E+00
   3.090000      0.0000000E+00
   3.096000      0.0000000E+00
   3.102000      0.0000000E+00
   3.108000      0.0000000E+00
   3.114000      0.0000000E+00
   3.120000      0.0000000E+00
   3.126000      0.0000000E+00
   3.132000      0.0000000E+00
   3.138000      0.0000000E+00
   3.144000      0.0000000E+00
   3.150000      0.0000000E+00
   3.156000      0.0000000E+00
   3.162000      0.0000000E+00
   3.168000      0.0000000E+00
   3.174000      0.0000000E+00
   3.180000      0.0000000E+00
   3.186000      0.0000000E+00
   3.192000      0.0000000E+00
   3.198000      0.0000000E+00
   3.204000      0.0000000E+00
   3.210000      0.0000000E+00
   3.216000      0.0000000E+00
   3.222000      0.0000000E+00
   3.228000      0.0000000E+00
   3.234000      0.0000000E+00
   3.240000      0.0000000E+00
   3.246000      0.0000000E+00
   3.252000      0.0000000E+00
   3.258000      0.0000000E+00
   3.264000      0.0000000E+00
   3.270000      0.0000000E+00
   3.276000      0.0000000E+00
   3.282000      0.0000000E+00
   3.288000      0.0000000E+00
   3.294000      0.0000000E+00
   3.300000      0.0000000E+00
   3.306000      0.0000000E+00
   3.312000      0.0000000E+00
   3.318000      0.0000000E+00
   3.324000      0.0000000E+00
   3.330000      0.0000000E+00
   3.336000      0.0000000E+00
   3.342000      0.0000000E+00
   3.348000      0.0000000E+00
   3.354000      0.0000000E+00
   3.360000      0.0000000E+00
   3.366000      0.0000000E+00
   3.372000      0.0000000E+00
   3.378000      0.0000000E+00
   3.384000      0.0000000E+00
   3.390000      0.0000000E+00
   3.396000      0.0000000E+00
   3.402000      0.0000000E+00
   3.408000      0.0000000E+00
   3.414000      0.0000000E+00
   3.420000      0.0000000E+00
   3.426000      0.0000000E+00
   3.432000      0.0000000E+00
   3.438000      0.0000000E+00
   3.444000      0.0000000E+00
   3.450000      0.0000000E+00
   3.456000      0.0000000E+00
   3.462000      0.0000000E+00
   3.468000      0.0000000E+00
   3.474000      0.0000000E+00
   3.480000      0.0000000E+00
   3.486000      0.0000000E+00
   3.492000      0.0000000E+00
   3.498000      0.0000000E+00
   3.504000      0.0000000E+00
   3.510000      0.0000000E+00
   3.516000      0.0000000E+00
   3.522000      0.0000000E+00
   3.528000      0.0000000E+00
   3.534000      0.0000000E+00
   3.540000      0.0000000E+00
   3.546000      0.0000000E+00
   3.552000      0.0000000E+00
   3.558000      0.0000000E+00
   3.564000      0.0000000E+00
   3.570000      0.0000000E+00
   3.576000      0.0000000E+00
   3.582000      0.0000000E+00
   3.588000      0.0000000E+00
   3.594000      0.0000000E+00
   3.600000      0.0000000E+00
   3.606000      0.0000000E+00
   3.612000      0.0000000E+00
   3.618000      0.0000000E+00
   3.624000      0.0000000E+00
   3.630000      0.0000000E+00
   3.636000      0.0000000E+00
   3.642000      0.0000000E+00
   3.648000      0.0000000E+00
   3.654000      0.0000000E+00
   3.660000      0.0000000E+00
   3.666000      0.0000000E+00
   3.672000      0.0000000E+00
   3.678000      0.0000000E+00
   3.684000      0.0000000E+00
   3.690000      0.0000000E+00
   3.696000      0.0000000E+00
   3.702000      0.0000000E+00
   3.708000      0.0000000E+00
   3.714000      0.0000000E+00
   3.720000      0.0000000E+00
   3.726000      0.0000000E+00
   3.732000      0.0000000E+00
   3.738000      0.0000000E+00
   3.744000      0.0000000E+00
   3.750000      0.0000000E+00
   3.756000      0.0000000E+00
   3.762000      0.0000000E+00
   3.768000      0.0000000E+00
   3.774000      0.0000000E+00
   3.780000      0.0000000E+00
   3.786000      0.0000000E+00
   3.792000      0.0000000E+00
   3.798000      0.0000000E+00
   3.804000      0.0000000E+00
   3.810000      0.0000000E+00
   3.816000      0.0000000E+00
   3.822000      0.0000000E+00
   3.828000      0.0000000E+00
   3.834000      0.0000000E+00
   3.840000      0.0000000E+00
   3.846000      0.0000000E+00
   3.852000      0.0000000E+00
   3.858000      0.0000000E+00
   3.864000      0.0000000E+00
   3.870000      0.0000000E+00
   3.876000      0.0000000E+00
   3.882000      0.0000000E+00
   3.888000      0.0000000E+00
   3.894000      0.0000000E+00
   3.900000      0.0000000E+00
   3.906000      0.0000000E+00
   3.912000      0.0000000E+00
   3.918000      0.0000000E+00
   3.924000      0.0000000E+00
   3.930000      0.0000000E+00
   3.936000      0.0000000E+00
   3.942000      0.0000000E+00
   3.948000      0.0000000E+00
   3.954000      0.0000000E+00
   3.960000      0.0000000E+00
   3.966000      0.0000000E+00
   3.972000      0.0000000E+00
   3.978000      0.0000000E+00
   3.984000      0.0000000E+00
   3.990000      0.0000000E+00
   3.996000      0.0000000E+00
   4.002000      0.0000000E+00
   4.008000      0.0000000E+00
   4.014000      0.0000000E+00
   4.020000      0.0000000E+00
   4.026000      0.0000000E+00
   4.032000      0.0000000E+00
   4.038000      0.0000000E+00
   4.044000      0.0000000E+00
   4.050000      0.0000000E+00
   4.056000      0.0000000E+00
   4.062000      0.0000000E+00
   4.068000      0.0000000E+00
   4.074000      0.0000000E+00
   4.080000      0.0000000E+00
   4.086000      0.0000000E+00
   4.092000      0.0000000E+00
   4.098000      0.0000000E+00
   4.104000      0.0000000E+00
   4.110000      0.0000000E+00
   4.116000      0.0000000E+00
   4.122000      0.0000000E+00
   4.128000      0.0000000E+00
   4.134000      0.0000000E+00
   4.140000      0.0000000E+00
   4.146000      0.0000000E+00
   4.152000      0.0000000E+00
   4.158000      0.0000000E+00
   4.164000      0.0000000E+00
   4.170000      0.0000000E+00
   4.176000      0.0000000E+00
   4.182000      0.0000000E+00
   4.188000      0.0000000E+00
   4.194000      0.0000000E+00
   4.200000      0.0000000E+00
   4.206000      0.0000000E+00
   4.212000      0.0000000E+00
   4.218000      0.0000000E+00
   4.224000      0.0000000E+00
   4.230000      0.0000000E+00
   4.236000      0.0000000E+00
   4.242000      0.0000000E+00
   4.248000      0.0000000E+00
   4.254000      0.0000000E+00
   4.260000      0.0000000E+00
   4.266000      0.0000000E+00
   4.272000      0.0000000E+00
   4.278000      0.0000000E+00
   4.284000      0.0000000E+00
   4.290000      0.0000000E+00
   4.296000      0.0000000E+00
   4.302000      0.0000000E+00
   4.308000      0.0000000E+00
   4.314000      0.0000000E+00
   4.320000      0.0000000E+00
   4.326000      0.0000000E+00
   4.332000      0.0000000E+00
   4.338000      0.0000000E+00
   4.344000      0.0000000E+00
   4.350000      0.0000000E+00
   4.356000      0.0000000E+00
   4.362000      0.0000000E+00
   4.368000      0.0000000E+00
   4.374000      0.0000000E+00
   4.380000      0.0000000E+00
   4.386000      0.0000000E+00
   4.392000      0.0000000E+00
   4.398000      0.0000000E+00
   4.404000      0.0000000E+00
   4.410000      0.0000000E+00
   4.416000      0.0000000E+00
   4.422000      0.0000000E+00
   4.428000      0.0000000E+00
   4.434000      0.0000000E+00
   4.440000      0.0000000E+00
   4.446000      0.0000000E+00
   4.452000      0.0000000E+00
   4.458000      0.0000000E+00
   4.464000      0.0000000E+00
   4.470000      0.0000000E+00
   4.476000      0.0000000E+00
   4.482000      0.0000000E+00
   4.488000      0.0000000E+00
   4.494000      0.0000000E+00
   4.500000      0.0000000E+00
   4.506000      0.0000000E+00
   4.512000      0.0000000E+00
   4.518000      0.0000000E+00
   4.524000      0.0000000E+00
   4.530000      0.0000000E+00
   4.536000      0.0000000E+00
   4.542000      0.0000000E+00
   4.548000      0.0000000E+00
   4.554000      0.0000000E+00
   4.560000      0.0000000E+00
   4.566000      0.0000000E+00
   4.572000      0.0000000E+00
   4.578000      0.0000000E+00
   4.584000      0.0000000E+00
   4.590000      0.0000000E+00
   4.596000      0.0000000E+00
   4.602000      0.0000000E+00
   4.608000      0.0000000E+00
   4.614000      0.0000000E+00
   4.620000      0.0000000E+00
   4.626000      0.0000000E+00
   4.632000      0.0000000E+00
   4.638000      0.0000000E+00
   4.644000      0.0000000E+00
   4.650000      0.0000000E+00
   4.656000      0.0000000E+00
   4.662000      0.0000000E+00
   4.668000      0.0000000E+00
   4.674000      0.0000000E+00
   4.680000      0.0000000E+00
   4.686000      0.0000000E+00
   4.692000      0.0000000E+00
   4.698000      0.0000000E+00
   4.704000      0.0000000E+00
   4.710000      0.0000000E+00
   4.716000      0.0000000E+00
   4.722000      0.0000000E+00
   4.728000      0.0000000E+00
   4.734000      0.0000000E+00
   4.740000      0.0000000E+00
   4.746000      0.0000000E+00
   4.752000      0.0000000E+00
   4.758000      0.0000000E+00
   4.764000      0.0000000E+00
   4.770000      0.0000000E+00
   4.776000      0.0000000E+00
   4.782000      0.0000000E+00
   4.788000      0.0000000E+00
   4.794000      0.0000000E+00
   4.800000      0.0000000E+00
   4.806000      0.0000000E+00
   4.812000      0.0000000E+00
   4.818000      0.0000000E+00
   4.824000      0.0000000E+00
   4.830000      0.0000000E+00
   4.836000      0.0000000E+00
   4.842000      0.0000000E+00
   4.848000      0.0000000E+00
   4.854000      0.0000000E+00
   4.860000      0.0000000E+00
   4.866000      0.0000000E+00
   4.872000      0.0000000E+00
   4.878000      0.0000000E+00
   4.884000      0.0000000E+00
   4.890000      0.0000000E+00
   4.896000      0.0000000E+00
   4.902000      0.0000000E+00
   4.908000      0.0000000E+00
   4.914000      0.0000000E+00
   4.920000      0.0000000E+00
   4.926000      0.0000000E+00
   4.932000      0.0000000E+00
   4.938000      0.0000000E+00
   4.944000      0.0000000E+00
   4.950000      0.0000000E+00
   4.956000      0.0000000E+00
   4.962000      0.0000000E+00
   4.968000      0.0000000E+00
   4.974000      0.0000000E+00
   4.980000      0.0000000E+00
   4.986000      0.0000000E+00
   4.992000      0.0000000E+00
   4.998000      0.0000000E+00
   5.004000      0.0000000E+00
   5.010000      0.0000000E+00
   5.016000      0.0000000E+00
   5.022000      0.0000000E+00
   5.028000      0.0000000E+00
   5.034000      0.0000000E+00
   5.040000      0.0000000E+00
   5.046000      0.0000000E+00
   5.052000      0.0000000E+00
   5.058000      0.0000000E+00
   5.064000      0.0000000E+00
   5.070000      0.0000000E+00
   5.076000      0.0000000E+00
   5.082000      0.0000000E+00
   5.088000      0.0000000E+00
   5.094000      0.0000000E+00
   5.100000      0.0000000E+00
   5.106000      0.0000000E+00
   5.112000      0.0000000E+00
   5.118000      0.0000000E+00
   5.124000      0.0000000E+00
   5.130000      0.0000000E+00
   5.136000      0.0000000E+00
   5.142000      0.0000000E+00
   5.148000      0.0000000E+00
   5.154000      0.0000000E+00
   5.160000      0.0000000E+00
   5.166000      0.0000000E+00
   5.172000      0.0000000E+00
   5.178000      0.0000000E+00
   5.184000      0.0000000E+00
   5.190000      0.0000000E+00
   5.196000      0.0000000E+00
   5.202000      0.0000000E+00
   5.208000      0.0000000E+00
   5.214000      0.0000000E+00
   5.220000      0.0000000E+00
   5.226000      0.0000000E+00
   5.232000      0.0000000E+00
   5.238000      0.0000000E+00
   5.244000      0.0000000E+00
   5.250000      0.0000000E+00
   5.256000      0.0000000E+00
   5.262000      0.0000000E+00
   5.268000      0.0000000E+00
   5.274000      0.0000000E+00
   5.280000      0.0000000E+00
   5.286000      0.0000000E+00
   5.292000      0.0000000E+00
   5.298000      0.0000000E+00
   5.304000      0.0000000E+00
   5.310000      0.0000000E+00
   5.316000      0.0000000E+00
   5.322000      0.0000000E+00
   5.328000      0.0000000E+00
   5.334000      0.0000000E+00
   5.340000      0.0000000E+00
   5.346000      0.0000000E+00
   5.352000      0.0000000E+00
   5.358000      0.0000000E+00
   5.364000      0.0000000E+00
   5.370000      0.0000000E+00
   5.376000      0.0000000E+00
   5.382000      0.0000000E+00
   5.388000      0.0000000E+00
   5.394000      0.0000000E+00
   5.400000      0.0000000E+00
   5.406000      0.0000000E+00
   5.412000      0.0000000E+00
   5.418000      0.0000000E+00
   5.424000      0.0000000E+00
   5.430000      0.0000000E+00
   5.436000      0.0000000E+00
   5.442000      0.0000000E+00
   5.448000      0.0000000E+00
   5.454000      0.0000000E+00
   5.460000      0.0000000E+00
   5.466000      0.0000000E+00
   5.472000      0.0000000E+00
   5.478000      0.0000000E+00
   5.484000      0.0000000E+00
   5.490000      0.0000000E+00
   5.496000      0.0000000E+00
   5.502000      0.0000000E+00
   5.508000      0.0000000E+00
   5.514000      0.0000000E+00
   5.520000      0.0000000E+00
   5.526000      0.0000000E+00
   5.532000      0.0000000E+00
   5.538000      0.0000000E+00
   5.544000      0.0000000E+00
   5.550000      0.0000000E+00
   5.556000      0.0000000E+00
   5.562000      0.0000000E+00
   5.568000      0.0000000E+00
   5.574000      0.0000000E+00
   5.580000      0.0000000E+00
   5.586000      0.0000000E+00
   5.592000      0.0000000E+00
   5.598000      0.0000000E+00
   5.604000      0.0000000E+00
   5.610000      0.0000000E+00
   5.616000      0.0000000E+00
   5.622000      0.0000000E+00
   5.628000      0.0000000E+00
   5.634000      0.0000000E+00
   5.640000      0.0000000E+00
   5.646000      0.0000000E+00
   5.652000      0.0000000E+00
   5.658000      0.0000000E+00
   5.664000      0.0000000E+00
   5.670000      0.0000000E+00
   5.676000      0.0000000E+00
   5.682000      0.0000000E+00
   5.688000      0.0000000E+00
   5.694000      0.0000000E+00
   5.700000      0.0000000E+00
   5.706000      0.0000000E+00
   5.712000      0.0000000E+00
   5.718000      0.0000000E+00
   5.724000      0.0000000E+00
   5.730000      0.0000000E+00
   5.736000      0.0000000E+00