 -5.9999999E-02  0.0000000E+00
 -5.4000001E-02  0.0000000E+00
 -4.8000000E-02  0.0000000E+00
 -4.1999999E-02  0.0000000E+00
 -3.5999998E-02  0.0000000E+00
 -2.9999999E-02  0.0000000E+00
 -2.4000000E-02  0.0000000E+00
 -1.7999999E-02  0.0000000E+00
 -1.2000000E-02  0.0000000E+00
 -6.0000001E-03  0.0000000E+00
  3.4694470E-18  0.0000000E+00
  6.0000001E-03  0.0000000E+00
  1.2000000E-02  0.0000000E+00
  1.7999999E-02  0.0000000E+00
  2.4000000E-02  0.0000000E+00
  2.9999999E-02  0.0000000E+00
  3.5999998E-02  0.0000000E+00
  4.1999999E-02  0.0000000E+00
  4.8000000E-02  0.0000000E+00
  5.4000001E-02  0.0000000E+00
  5.9999999E-02  0.0000000E+00
  6.6000000E-02  0.0000000E+00
  7.1999997E-02  0.0000000E+00
  7.8000002E-02  0.0000000E+00
  8.3999999E-02  0.0000000E+00
  9.0000004E-02  0.0000000E+00
  9.6000001E-02  0.0000000E+00
  0.1020000      0.0000000E+00
  0.1080000      0.0000000E+00
  0.1140000      0.0000000E+00
  0.1200000      0.0000000E+00
  0.1260000      0.0000000E+00
  0.1320000      0.0000000E+00
  0.1380000      0.0000000E+00
  0.1440000      0.0000000E+00
  0.1500000      0.0000000E+00
  0.1560000      0.0000000E+00
  0.1620000      0.0000000E+00
  0.1680000      0.0000000E+00
  0.1740000      0.0000000E+00
  0.1800000      0.0000000E+00
  0.1860000      0.0000000E+00
  0.1920000      0.0000000E+00
  0.1980000      0.0000000E+00
  0.2040000      0.0000000E+00
  0.2100000      0.0000000E+00
  0.2160000      0.0000000E+00
  0.2220000      0.0000000E+00
  0.2280000      0.0000000E+00
  0.2340000      0.0000000E+00
  0.2400000      0.0000000E+00
  0.2460000      0.0000000E+00
  0.2520000      0.0000000E+00
  0.2580000      0.0000000E+00
  0.2640000      0.0000000E+00
  0.2700000      0.0000000E+00
  0.2760000      0.0000000E+00
  0.2820000      0.0000000E+00
  0.2880000      0.0000000E+00
  0.2940000      0.0000000E+00
  0.3000000      0.0000000E+00
  0.3060000      0.0000000E+00
  0.3120000      0.0000000E+00
  0.3180000      0.0000000E+00
  0.3240000      0.0000000E+00
  0.3300000      0.0000000E+00
  0.3360000      0.0000000E+00
  0.3420000      0.0000000E+00
  0.3480000      0.0000000E+00
  0.3540000      0.0000000E+00
  0.3600000      0.0000000E+00
  0.3660000      0.0000000E+00
  0.3720000      0.0000000E+00
  0.3780000      0.0000000E+00
  0.3840000      0.0000000E+00
  0.3900000      0.0000000E+00
  0.3960000      0.0000000E+00
  0.4020000      0.0000000E+00
  0.4080000      0.0000000E+00
  0.4140000      0.0000000E+00
  0.4200000      0.0000000E+00
  0.4260000      0.0000000E+00
  0.4320000      0.0000000E+00
  0.4380000      0.0000000E+00
  0.4440000      0.0000000E+00
  0.4500000      0.0000000E+00
  0.4560000      0.0000000E+00
  0.4620000      0.0000000E+00
  0.4680000      0.0000000E+00
  0.4740000      0.0000000E+00
  0.4800000      0.0000000E+00
  0.4860000      0.0000000E+00
  0.4920000      0.0000000E+00
  0.4980000      0.0000000E+00
  0.5040000      0.0000000E+00
  0.5100000      0.0000000E+00
  0.5160000      0.0000000E+00
  0.5220000      0.0000000E+00
  0.5280000      0.0000000E+00
  0.5340000      0.0000000E+00
  0.5400000      0.0000000E+00
  0.5460000      0.0000000E+00
  0.5520000      0.0000000E+00
  0.5580000      0.0000000E+00
  0.5640000      0.0000000E+00
  0.5700000      0.0000000E+00
  0.5760000      0.0000000E+00
  0.5820000      0.0000000E+00
  0.5880000      0.0000000E+00
  0.5940000      0.0000000E+00
  0.6000000      0.0000000E+00
  0.6060000      0.0000000E+00
  0.6120000      0.0000000E+00
  0.6180000      0.0000000E+00
  0.6240000      0.0000000E+00
  0.6300000      0.0000000E+00
  0.6360000      0.0000000E+00
  0.6420000      0.0000000E+00
  0.6480000      0.0000000E+00
  0.6540000      0.0000000E+00
  0.6600000      0.0000000E+00
  0.6660000      0.0000000E+00
  0.6720000      0.0000000E+00
  0.6780000      0.0000000E+00
  0.6840000      0.0000000E+00
  0.6900000      0.0000000E+00
  0.6960000      0.0000000E+00
  0.7020000      0.0000000E+00
  0.7080000      0.0000000E+00
  0.7140000      0.0000000E+00
  0.7200000      0.0000000E+00
  0.7260000      0.0000000E+00
  0.7320000      0.0000000E+00
  0.7380000      0.0000000E+00
  0.7440000      0.0000000E+00
  0.7500000      0.0000000E+00
  0.7560000      0.0000000E+00
  0.7620000      0.0000000E+00
  0.7680000      0.0000000E+00
  0.7740000      0.0000000E+00
  0.7800000      0.0000000E+00
  0.7860000      0.0000000E+00
  0.7920000      0.0000000E+00
  0.7980000      0.0000000E+00
  0.8040000      0.0000000E+00
  0.8100000      0.0000000E+00
  0.8160000      0.0000000E+00
  0.8220000      0.0000000E+00
  0.8280000      0.0000000E+00
  0.8340000      0.0000000E+00
  0.8400000      0.0000000E+00
  0.8460000      0.0000000E+00
  0.8520000      0.0000000E+00
  0.8580000      0.0000000E+00
  0.8640000      0.0000000E+00
  0.8700000      0.0000000E+00
  0.8760000      0.0000000E+00
  0.8820000      0.0000000E+00
  0.8880000      0.0000000E+00
  0.8940000      0.0000000E+00
  0.9000000      0.0000000E+00
  0.9060000      0.0000000E+00
  0.9120000      0.0000000E+00
  0.9180000      0.0000000E+00
  0.9240000      0.0000000E+00
  0.9300000      0.0000000E+00
  0.9360000      0.0000000E+00
  0.9420000      0.0000000E+00
  0.9480000      0.0000000E+00
  0.9540000      0.0000000E+00
  0.9600000      0.0000000E+00
  0.9660000      0.0000000E+00
  0.9720000      0.0000000E+00
  0.9780000      0.0000000E+00
  0.9840000      0.0000000E+00
  0.9900000      0.0000000E+00
  0.9960000      0.0000000E+00
   1.002000      0.0000000E+00
   1.008000      0.0000000E+00
   1.014000      0.0000000E+00
   1.020000      0.0000000E+00
   1.026000      0.0000000E+00
   1.032000      0.0000000E+00
   1.038000      0.0000000E+00
   1.044000      0.0000000E+00
   1.050000      0.0000000E+00
   1.056000      0.0000000E+00
   1.062000      0.0000000E+00
   1.068000      0.0000000E+00
   1.074000      0.0000000E+00
   1.080000      0.0000000E+00
   1.086000      0.0000000E+00
   1.092000      0.0000000E+00
   1.098000      0.0000000E+00
   1.104000      0.0000000E+00
   1.110000      0.0000000E+00
   1.116000      0.0000000E+00
   1.122000      0.0000000E+00
   1.128000      0.0000000E+00
   1.134000      0.0000000E+00
   1.140000      0.0000000E+00
   1.146000      0.0000000E+00
   1.152000      0.0000000E+00
   1.158000      0.0000000E+00
   1.164000      0.0000000E+00
   1.170000      0.0000000E+00
   1.176000      0.0000000E+00
   1.182000      0.0000000E+00
   1.188000      0.0000000E+00
   1.194000      0.0000000E+00
   1.200000      0.0000000E+00
   1.206000      0.0000000E+00
   1.212000      0.0000000E+00
   1.218000      0.0000000E+00
   1.224000      0.0000000E+00
   1.230000      0.0000000E+00
   1.236000      0.0000000E+00
   1.242000      0.0000000E+00
   1.248000      0.0000000E+00
   1.254000      0.0000000E+00
   1.260000      0.0000000E+00
   1.266000      0.0000000E+00
   1.272000      0.0000000E+00
   1.278000      0.0000000E+00
   1.284000      0.0000000E+00
   1.290000      0.0000000E+00
   1.296000      0.0000000E+00
   1.302000      0.0000000E+00
   1.308000      0.0000000E+00
   1.314000      0.0000000E+00
   1.320000      0.0000000E+00
   1.326000      0.0000000E+00
   1.332000      0.0000000E+00
   1.338000      0.0000000E+00
   1.344000      0.0000000E+00
   1.350000      0.0000000E+00
   1.356000      0.0000000E+00
   1.362000      0.0000000E+00
   1.368000      0.0000000E+00
   1.374000      0.0000000E+00
   1.380000      0.0000000E+00
   1.386000      0.0000000E+00
   1.392000      0.0000000E+00
   1.398000      0.0000000E+00
   1.404000      0.0000000E+00
   1.410000      0.0000000E+00
   1.416000      0.0000000E+00
   1.422000      0.0000000E+00
   1.428000      0.0000000E+00
   1.434000      0.0000000E+00
   1.440000      0.0000000E+00
   1.446000      0.0000000E+00
   1.452000      0.0000000E+00
   1.458000      0.0000000E+00
   1.464000      0.0000000E+00
   1.470000      0.0000000E+00
   1.476000      0.0000000E+00
   1.482000      0.0000000E+00
   1.488000      0.0000000E+00
   1.494000      0.0000000E+00
   1.500000      0.0000000E+00
   1.506000      0.0000000E+00
   1.512000      0.0000000E+00
   1.518000      0.0000000E+00
   1.524000      0.0000000E+00
   1.530000      0.0000000E+00
   1.536000      0.0000000E+00
   1.542000      0.0000000E+00
   1.548000      0.0000000E+00
   1.554000      0.0000000E+00
   1.560000      0.0000000E+00
   1.566000      0.0000000E+00
   1.572000      0.0000000E+00
   1.578000      0.0000000E+00
   1.584000      0.0000000E+00
   1.590000      0.0000000E+00
   1.596000      0.0000000E+00
   1.602000      0.0000000E+00
   1.608000      0.0000000E+00
   1.614000      0.0000000E+00
   1.620000      0.0000000E+00
   1.626000      0.0000000E+00
   1.632000      0.0000000E+00
   1.638000      0.0000000E+00
   1.644000      0.0000000E+00
   1.650000      0.0000000E+00
   1.656000      0.0000000E+00
   1.662000      0.0000000E+00
   1.668000      0.0000000E+00
   1.674000      0.0000000E+00
   1.680000      0.0000000E+00
   1.686000      0.0000000E+00
   1.692000      0.0000000E+00
   1.698000      0.0000000E+00
   1.704000      0.0000000E+00
   1.710000      0.0000000E+00
   1.716000      0.0000000E+00
   1.722000      0.0000000E+00
   1.728000      0.0000000E+00
   1.734000      0.0000000E+00
   1.740000      0.0000000E+00
   1.746000      0.0000000E+00
   1.752000      0.0000000E+00
   1.758000      0.0000000E+00
   1.764000      0.0000000E+00
   1.770000      0.0000000E+00
   1.776000      0.0000000E+00
   1.782000      0.0000000E+00
   1.788000      0.0000000E+00
   1.794000      0.0000000E+00
   1.800000      0.0000000E+00
   1.806000      0.0000000E+00
   1.812000      0.0000000E+00
   1.818000      0.0000000E+00
   1.824000      0.0000000E+00
   1.830000      0.0000000E+00
   1.836000      0.0000000E+00
   1.842000      0.0000000E+00
   1.848000      0.0000000E+00
   1.854000      0.0000000E+00
   1.860000      0.0000000E+00
   1.866000      0.0000000E+00
   1.872000      0.0000000E+00
   1.878000      0.0000000E+00
   1.884000      0.0000000E+00
   1.890000      0.0000000E+00
   1.896000      0.0000000E+00
   1.902000      0.0000000E+00
   1.908000      0.0000000E+00
   1.914000      0.0000000E+00
   1.920000      0.0000000E+00
   1.926000      0.0000000E+00
   1.932000      0.0000000E+00
   1.938000      0.0000000E+00
   1.944000      0.0000000E+00
   1.950000      0.0000000E+00
   1.956000      0.0000000E+00
   1.962000      0.0000000E+00
   1.968000      0.0000000E+00
   1.974000      0.0000000E+00
   1.980000      0.0000000E+00
   1.986000      0.0000000E+00
   1.992000      0.0000000E+00
   1.998000      0.0000000E+00
   2.004000      0.0000000E+00
   2.010000      0.0000000E+00
   2.016000      0.0000000E+00
   2.022000      0.0000000E+00
   2.028000      0.0000000E+00
   2.034000      0.0000000E+00
   2.040000      0.0000000E+00
   2.046000      0.0000000E+00
   2.052000      0.0000000E+00
   2.058000      0.0000000E+00
   2.064000      0.0000000E+00
   2.070000      0.0000000E+00
   2.076000      0.0000000E+00
   2.082000      0.0000000E+00
   2.088000      0.0000000E+00
   2.094000      0.0000000E+00
   2.100000      0.0000000E+00
   2.106000      0.0000000E+00
   2.112000      0.0000000E+00
   2.118000      0.0000000E+00
   2.124000      0.0000000E+00
   2.130000      0.0000000E+00
   2.136000      0.0000000E+00
   2.142000      0.0000000E+00
   2.148000      0.0000000E+00
   2.154000      0.0000000E+00
   2.160000      0.0000000E+00
   2.166000      0.0000000E+00
   2.172000      0.0000000E+00
   2.178000      0.0000000E+00
   2.184000      0.0000000E+00
   2.190000      0.0000000E+00
   2.196000      0.0000000E+00
   2.202000      0.0000000E+00
   2.208000      0.0000000E+00
   2.214000      0.0000000E+00
   2.220000      0.0000000E+00
   2.226000      0.0000000E+00
   2.232000      0.0000000E+00
   2.238000      0.0000000E+00
   2.244000      0.0000000E+00
   2.250000      0.0000000E+00
   2.256000      0.0000000E+00
   2.262000      0.0000000E+00
   2.268000      0.0000000E+00
   2.274000      0.0000000E+00
   2.280000      0.0000000E+00
   2.286000      0.0000000E+00
   2.292000      0.0000000E+00
   2.298000      0.0000000E+00
   2.304000      0.0000000E+00
   2.310000      0.0000000E+00
   2.316000      0.0000000E+00
   2.322000      0.0000000E+00
   2.328000      0.0000000E+00
   2.334000      0.0000000E+00
   2.340000      0.0000000E+00
   2.346000      0.0000000E+00
   2.352000      0.0000000E+00
   2.358000      0.0000000E+00
   2.364000      0.0000000E+00
   2.370000      0.0000000E+00
   2.376000      0.0000000E+00
   2.382000      0.0000000E+00
   2.388000      0.0000000E+00
   2.394000      0.0000000E+00
   2.400000      0.0000000E+00
   2.406000      0.0000000E+00
   2.412000      0.0000000E+00
   2.418000      0.0000000E+00
   2.424000      0.0000000E+00
   2.430000      0.0000000E+00
   2.436000      0.0000000E+00
   2.442000      0.0000000E+00
   2.448000      0.0000000E+00
   2.454000      0.0000000E+00
   2.460000      0.0000000E+00
   2.466000      0.0000000E+00
   2.472000      0.0000000E+00
   2.478000      0.0000000E+00
   2.484000      0.0000000E+00
   2.490000      0.0000000E+00
   2.496000      0.0000000E+00
   2.502000      0.0000000E+00
   2.508000      0.0000000E+00
   2.514000      0.0000000E+00
   2.520000      0.0000000E+00
   2.526000      0.0000000E+00
   2.532000      0.0000000E+00
   2.538000      0.0000000E+00
   2.544000      0.0000000E+00
   2.550000      0.0000000E+00
   2.556000      0.0000000E+00
   2.562000      0.0000000E+00
   2.568000      0.0000000E+00
   2.574000      0.0000000E+00
   2.580000      0.0000000E+00
   2.586000      0.0000000E+00
   2.592000      0.0000000E+00
   2.598000      0.0000000E+00
   2.604000      0.0000000E+00
   2.610000      0.0000000E+00
   2.616000      0.0000000E+00
   2.622000      0.0000000E+00
   2.628000      0.0000000E+00
   2.634000      0.0000000E+00
   2.640000      0.0000000E+00
   2.646000      0.0000000E+00
   2.652000      0.0000000E+00
   2.658000      0.0000000E+00
   2.664000      0.0000000E+00
   2.670000      0.0000000E+00
   2.676000      0.0000000E+00
   2.682000      0.0000000E+00
   2.688000      0.0000000E+00
   2.694000      0.0000000E+00
   2.700000      0.0000000E+00
   2.706000      0.0000000E+00
   2.712000      0.0000000E+00
   2.718000      0.0000000E+00
   2.724000      0.0000000E+00
   2.730000      0.0000000E+00
   2.736000      0.0000000E+00
   2.742000      0.0000000E+00
   2.748000      0.0000000E+00
   2.754000      0.0000000E+00
   2.760000      0.0000000E+00
   2.766000      0.0000000E+00
   2.772000      0.0000000E+00
   2.778000      0.0000000E+00
   2.784000      0.0000000E+00
   2.790000      0.0000000E+00
   2.796000      0.0000000E+00
   2.802000      0.0000000E+00
   2.808000      0.0000000E+00
   2.814000      0.0000000E+00
   2.820000      0.0000000E+00
   2.826000      0.0000000E+00
   2.832000      0.0000000E+00
   2.838000      0.0000000E+00
   2.844000      0.0000000E+00
   2.850000      0.0000000E+00
   2.856000      0.0000000E+00
   2.862000      0.0000000E+00
   2.868000      0.0000000E+00
   2.874000      0.0000000E+00
   2.880000      0.0000000E+00
   2.886000      0.0000000E+00
   2.892000      0.0000000E+00
   2.898000      0.0000000E+00
   2.904000      0.0000000E+00
   2.910000      0.0000000E+00
   2.916000      0.0000000E+00
   2.922000      0.0000000E+00
   2.928000      0.0000000E+00
   2.934000      0.0000000E+00
   2.940000      0.0000000E+00
   2.946000      0.0000000E+00
   2.952000      0.0000000E+00
   2.958000      0.0000000E+00
   2.964000      0.0000000E+00
   2.970000      0.0000000E+00
   2.976000      0.0000000E+00
   2.982000      0.0000000E+00
   2.988000      0.0000000E+00
   2.994000      0.0000000E+00
   3.000000      0.0000000E+00
   3.006000      0.0000000E+00
   3.012000      0.0000000E+00
   3.018000      0.0000000E+00
   3.024000      0.0000000E+00
   3.030000      0.0000000E+00
   3.036000      0.0000000E+00
   3.042000      0.0000000E+00
   3.048000      0.0000000E+00
   3.054000      0.0000000E+00
   3.060000      0.0000000E+00
   3.066000      0.0000000E+00
   3.072000      0.0000000E+00
   3.078000      0.0000000E+00
   3.084000      0.0000000E+00
   3.090000      0.0000000E+00
   3.096000      0.0000000E+00
   3.102000      0.0000000E+00
   3.108000      0.0000000E+00
   3.114000      0.0000000E+00
   3.120000      0.0000000E+00
   3.126000      0.0000000E+00
   3.132000      0.0000000E+00
   3.138000      0.0000000E+00
   3.144000      0.0000000E+00
   3.150000      0.0000000E+00
   3.156000      0.0000000E+00
   3.162000      0.0000000E+00
   3.168000      0.0000000E+00
   3.174000      0.0000000E+00
   3.180000      0.0000000E+00
   3.186000      0.0000000E+00
   3.192000      0.0000000E+00
   3.198000      0.0000000E+00
   3.204000      0.0000000E+00
   3.210000      0.0000000E+00
   3.216000      0.0000000E+00
   3.222000      0.0000000E+00
   3.228000      0.0000000E+00
   3.234000      0.0000000E+00
   3.240000      0.0000000E+00
   3.246000      0.0000000E+00
   3.252000      0.0000000E+00
   3.258000      0.0000000E+00
   3.264000      0.0000000E+00
   3.270000      0.0000000E+00
   3.276000      0.0000000E+00
   3.282000      0.0000000E+00
   3.288000      0.0000000E+00
   3.294000      0.0000000E+00
   3.300000      0.0000000E+00
   3.306000      0.0000000E+00
   3.312000      0.0000000E+00
   3.318000      0.0000000E+00
   3.324000      0.0000000E+00
   3.330000      0.0000000E+00
   3.336000      0.0000000E+00
   3.342000      0.0000000E+00
   3.348000      0.0000000E+00
   3.354000      0.0000000E+00
   3.360000      0.0000000E+00
   3.366000      0.0000000E+00
   3.372000      0.0000000E+00
   3.378000      0.0000000E+00
   3.384000      0.0000000E+00
   3.390000      0.0000000E+00
   3.396000      0.0000000E+00
   3.402000      0.0000000E+00
   3.408000      0.0000000E+00
   3.414000      0.0000000E+00
   3.420000      0.0000000E+00
   3.426000      0.0000000E+00
   3.432000      0.0000000E+00
   3.438000      0.0000000E+00
   3.444000      0.0000000E+00
   3.450000      0.0000000E+00
   3.456000      0.0000000E+00
   3.462000      0.0000000E+00
   3.468000      0.0000000E+00
   3.474000      0.0000000E+00
   3.480000      0.0000000E+00
   3.486000      0.0000000E+00
   3.492000      0.0000000E+00
   3.498000      0.0000000E+00
   3.504000      0.0000000E+00
   3.510000      0.0000000E+00
   3.516000      0.0000000E+00
   3.522000      0.0000000E+00
   3.528000      0.0000000E+00
   3.534000      0.0000000E+00
   3.540000      0.0000000E+00
   3.546000      0.0000000E+00
   3.552000      0.0000000E+00
   3.558000      0.0000000E+00
   3.564000      0.0000000E+00
   3.570000      0.0000000E+00
   3.576000      0.0000000E+00
   3.582000      0.0000000E+00
   3.588000      0.0000000E+00
   3.594000      0.0000000E+00
   3.600000     -1.6184994E-38
   3.606000     -2.3455643E-38
   3.612000     -2.9022850E-38
   3.618000     -3.1275903E-38
   3.624000     -2.7101070E-38
   3.630000     -1.7929601E-38
   3.636000      0.0000000E+00
   3.642000      4.4338409E-38
   3.648000      7.2619468E-38
   3.654000      1.0079735E-37
   3.660000      1.1600502E-37
   3.666000      1.1524585E-37
   3.672000      1.0208208E-37
   3.678000      8.0711260E-38
   3.684000      4.1920581E-38
   3.690000      0.0000000E+00
   3.696000     -4.3935065E-38
   3.702000     -7.6688715E-38
   3.708000     -9.7944059E-38
   3.714000     -9.5319393E-38
   3.720000     -4.6079357E-38
   3.726000      4.3145615E-38
   3.732000      1.3993831E-37
   3.738000      2.5196837E-37
   3.744000      3.8495149E-37
   3.750000      5.0547656E-37
   3.756000      5.7238697E-37
   3.762000      5.6960119E-37
   3.768000      4.9906305E-37
   3.774000      3.5155114E-37
   3.780000      1.3918879E-37
   3.786000     -1.2852914E-37
   3.792000     -3.8574527E-37
   3.798000     -6.0909198E-37
   3.804000     -7.4033522E-37
   3.810000     -7.5123377E-37
   3.816000     -5.9974700E-37
   3.822000     -3.0691586E-37
   3.828000      1.1404855E-37
   3.834000      5.5987340E-37
   3.840000      9.1580635E-37
   3.846000      1.0519012E-36
   3.852000      8.8768092E-37
   3.858000      5.0112424E-37
   3.864000     -1.1486679E-37
   3.870000     -8.9405945E-37
   3.876000     -1.6265946E-36
   3.882000     -2.0751599E-36
   3.888000     -2.0824911E-36
   3.894000     -1.4987056E-36
   3.900000     -3.6064669E-37
   3.906000      1.2100094E-36
   3.912000      3.0703509E-36
   3.918000      4.8435967E-36
   3.924000      6.2217408E-36
   3.930000      6.8963543E-36
   3.936000      6.6195499E-36
   3.942000      5.1882263E-36
   3.948000      2.5877533E-36
   3.954000     -9.4739543E-37
   3.960000     -5.1944456E-36
   3.966000     -9.6203020E-36
   3.972000     -1.3640732E-35
   3.978000     -1.6632670E-35
   3.984000     -1.7990225E-35
   3.990000     -1.7189243E-35
   3.996000     -1.3872281E-35
   4.002000     -7.9024660E-36
   4.008000      5.7512307E-37
   4.014000      1.1109895E-35
   4.020000      2.3022675E-35
   4.026000      3.5278368E-35
   4.032000      4.6630681E-35
   4.038000      5.5695049E-35
   4.044000      6.1071489E-35
   4.050000      6.1455126E-35
   4.056000      5.5771111E-35
   4.062000      4.3336195E-35
   4.068000      2.3970484E-35
   4.074000     -1.9173490E-36
   4.080000     -3.3226217E-35
   4.086000     -6.8164002E-35
   4.092000     -1.0426719E-34
   4.098000     -1.3850650E-34
   4.104000     -1.6742307E-34
   4.110000     -1.8738993E-34
   4.116000     -1.9487678E-34
   4.122000     -1.8677846E-34
   4.128000     -1.6076469E-34
   4.134000     -1.1561985E-34
   4.140000     -5.1544515E-35
   4.146000      2.9616523E-35
   4.152000      1.2424322E-34
   4.158000      2.2694186E-34
   4.164000      3.3068422E-34
   4.170000      4.2708965E-34
   4.176000      5.0687381E-34
   4.182000      5.6042322E-34
   4.188000      5.7850554E-34
   4.194000      5.5306642E-34
   4.200000      4.7809697E-34
   4.206000      3.5047995E-34
   4.212000      1.7077719E-34
   4.218000     -5.6134068E-35
   4.224000     -3.2066969E-34
   4.230000     -6.0844139E-34
   4.236000     -9.0056082E-34
   4.242000     -1.1743748E-33
   4.248000     -1.4046451E-33
   4.254000     -1.5651876E-33
   4.260000     -1.6308515E-33
   4.266000     -1.5797856E-33
   4.272000     -1.3958228E-33
   4.278000     -1.0707891E-33
   4.284000     -6.0652937E-34
   4.290000     -1.6417404E-35
   4.296000      6.7386329E-34
   4.302000      1.4264602E-33
   4.308000      2.1925517E-33
   4.314000      2.9146671E-33
   4.320000      3.5300929E-33
   4.326000      3.9752284E-33
   4.332000      4.1906403E-33
   4.338000      4.1264642E-33
   4.344000      3.7477210E-33
   4.350000      3.0390702E-33
   4.356000      2.0085068E-33
   4.362000      6.8955885E-34
   4.368000     -8.5836361E-34
   4.374000     -2.5516976E-33
   4.380000     -4.2865731E-33
   4.386000     -5.9446696E-33
   4.392000     -7.4007053E-33
   4.398000     -8.5311319E-33
   4.404000     -9.2233930E-33
   4.410000     -9.3850507E-33
   4.416000     -8.9520691E-33
   4.422000     -7.8955649E-33
   4.428000     -6.2263952E-33
   4.434000     -3.9971256E-33
   4.440000     -1.3010252E-33
   4.446000      1.7320114E-33
   4.452000      4.9425420E-33
   4.458000      8.1513010E-33
   4.464000      1.1170970E-32
   4.470000      1.3819145E-32
   4.476000      1.5931400E-32
   4.482000      1.7373264E-32
   4.488000      1.8049798E-32
   4.494000      1.7911636E-32
   4.500000      1.6956530E-32
   4.506000      1.5225892E-32
   4.512000      1.2796314E-32
   4.518000      9.7666837E-33
   4.524000      6.2421703E-33
   4.530000      2.3169761E-33
   4.536000     -1.9416891E-33
   4.542000     -6.5056155E-33
   4.548000     -1.1390739E-32
   4.554000     -1.6652888E-32
   4.560000     -2.2372326E-32
   4.566000     -2.8626455E-32
   4.572000     -3.5451608E-32
   4.578000     -4.2796575E-32
   4.584000     -5.0472301E-32
   4.590000     -5.8103916E-32
   4.596000     -6.5092294E-32
   4.602000     -7.0593273E-32
   4.608000     -7.3522258E-32
   4.614000     -7.2591325E-32
   4.620000     -6.6383745E-32
   4.626000     -5.3468207E-32
   4.632000     -3.2551296E-32
   4.638000     -2.6621277E-33
   4.644000      3.6641570E-32
   4.650000      8.5061751E-32
   4.656000      1.4136279E-31
   4.662000      2.0321206E-31
   4.668000      2.6708346E-31
   4.674000      3.2824887E-31
   4.680000      3.8087947E-31
   4.686000      4.1827446E-31
   4.692000      4.3322614E-31
   4.698000      4.1852150E-31
   4.704000      3.6756728E-31
   4.710000      2.7511322E-31
   4.716000      1.3803285E-31
   4.722000     -4.3891525E-32
   4.728000     -2.6724617E-31
   4.734000     -5.2440101E-31
   4.740000     -8.0314297E-31
   4.746000     -1.0866089E-30
   4.752000     -1.3535885E-30
   4.758000     -1.5792582E-30
   4.764000     -1.7363759E-30
   4.770000     -1.7969461E-30
   4.776000     -1.7343133E-30
   4.782000     -1.5256112E-30
   4.788000     -1.1544377E-30
   4.794000     -6.1358628E-31
   4.800000      9.2380602E-32
   4.806000      9.4496289E-31
   4.812000      1.9102218E-30
   4.818000      2.9382083E-30
   4.824000      3.9635589E-30
   4.830000      4.9074455E-30
   4.836000      5.6809953E-30
   4.842000      6.1901927E-30
   4.848000      6.3421663E-30
   4.854000      6.0526268E-30
   4.860000      5.2540881E-30
   4.866000      3.9043802E-30
   4.872000      1.9948372E-30
   4.878000     -4.4253417E-31
   4.884000     -3.3296526E-30
   4.890000     -6.5394650E-30
   4.896000     -9.8962443E-30
   4.902000     -1.3179640E-29
   4.908000     -1.6132841E-29
   4.914000     -1.8475022E-29
   4.920000     -1.9917840E-29
   4.926000     -2.0185551E-29
   4.932000     -1.9037830E-29
   4.938000     -1.6294108E-29
   4.944000     -1.1857878E-29
   4.950000     -5.7391463E-30
   4.956000      1.9269700E-30
   4.962000      1.0867567E-29
   4.968000      2.0667199E-29
   4.974000      3.0772819E-29
   4.980000      4.0509743E-29
   4.986000      4.9109402E-29
   4.992000      5.5748925E-29
   4.998000      5.9601616E-29
   5.004000      5.9896566E-29
   5.010000      5.5984484E-29
   5.016000      4.7405995E-29
   5.022000      3.3957762E-29
   5.028000      1.5751186E-29
   5.034000     -6.7418585E-30
   5.040000     -3.2661810E-29
   5.046000     -6.0757751E-29
   5.052000     -8.9411484E-29
   5.058000     -1.1669210E-28
   5.064000     -1.4044197E-28
   5.070000     -1.5839338E-28
   5.076000     -1.6831174E-28
   5.082000     -1.6815984E-28
   5.088000     -1.5627461E-28
   5.094000     -1.3154544E-28
   5.100000     -9.3582134E-29
   5.106000     -4.2858339E-29
   5.112000      1.9183016E-29
   5.118000      9.0076141E-29
   5.124000      1.6634210E-28
   5.130000      2.4357116E-28
   5.136000      3.1658333E-28
   5.142000      3.7966755E-28
   5.148000      4.2689532E-28
   5.154000      4.5249816E-28
   5.160000      4.5129214E-28
   5.166000      4.1912771E-28
   5.172000      3.5333626E-28
   5.178000      2.5314320E-28
   5.184000      1.2001233E-28
   5.190000     -4.2111827E-29
   5.196000     -2.2669640E-28
   5.202000     -4.2467477E-28
   5.208000     -6.2468390E-28
   5.214000     -8.1349499E-28
   5.220000     -9.7663657E-28
   5.226000     -1.0991953E-27
   5.232000     -1.1667652E-27
   5.238000     -1.1665026E-27
   5.244000     -1.0882279E-27
   5.250000     -9.2550852E-28
   5.256000     -6.7664250E-28
   5.262000     -3.4546407E-28
   5.268000      5.8109616E-29
   5.274000      5.1786552E-28
   5.280000      1.0114760E-27
   5.286000      1.5111176E-27
   5.292000      1.9845466E-27
   5.298000      2.3966220E-27
   5.304000      2.7112369E-27
   5.310000      2.8935819E-27
   5.316000      2.9126374E-27
   5.322000      2.7437609E-27
   5.328000      2.3712044E-27
   5.334000      1.7903949E-27
   5.340000      1.0097864E-27
   5.346000      5.2106667E-29
   5.352000     -1.0451615E-27
   5.358000     -2.2302059E-27
   5.364000     -3.4383065E-27
   5.370000     -4.5942951E-27
   5.376000     -5.6160317E-27
   5.382000     -6.4188040E-27
   5.388000     -6.9204872E-27
   5.394000     -7.0472226E-27
   5.400000     -6.7393273E-27
   5.406000     -5.9570569E-27
   5.412000     -4.6858484E-27
   5.418000     -2.9406244E-27
   5.424000     -7.6875656E-28
   5.430000      1.7486764E-27
   5.436000      4.4976388E-27
   5.442000      7.3341092E-27
   5.448000      1.0089363E-26
   5.454000      1.2577528E-26
   5.460000      1.4605207E-26
   5.466000      1.5982824E-26
   5.472000      1.6537181E-26
   5.478000      1.6124565E-26
   5.484000      1.4643660E-26
   5.490000      1.2047404E-26
   5.496000      8.3528999E-27
   5.502000      3.6485491E-27
   5.508000     -1.9024386E-27
   5.514000     -8.0627902E-27
   5.520000     -1.4526659E-26
   5.526000     -2.0930116E-26
   5.532000     -2.6866556E-26
   5.538000     -3.1906724E-26
   5.544000     -3.5622620E-26
   5.550000     -3.7614287E-26
   5.556000     -3.7538187E-26
   5.562000     -3.5135553E-26
   5.568000     -3.0259022E-26
   5.574000     -2.2895603E-26
   5.580000     -1.3184177E-26
   5.586000     -1.4257596E-27
   5.592000      1.1914993E-26
   5.598000      2.6218184E-26
   5.604000      4.0727665E-26
   5.610000      5.4580725E-26
   5.616000      6.6847931E-26
   5.622000      7.6581896E-26
   5.628000      8.2873117E-26
   5.634000      8.4910147E-26
   5.640000      8.2041189E-26
   5.646000      7.3833264E-26
   5.652000      6.0125246E-26
   5.658000      4.1070690E-26
   5.664000      1.7166664E-26
   5.670000     -1.0734839E-26
   5.676000     -4.1435659E-26
   5.682000     -7.3422310E-26
   5.688000     -1.0491960E-25
   5.694000     -1.3396654E-25
   5.700000     -1.5851253E-25
   5.706000     -1.7653053E-25
   5.712000     -1.8614224E-25
   5.718000     -1.8574933E-25
   5.724000     -1.7416328E-25
   5.730000     -1.5072621E-25
   5.736000     -1.1541381E-25