 -5.9999999E-02  0.0000000E+00
 -5.4000001E-02  0.0000000E+00
 -4.8000000E-02  0.0000000E+00
 -4.1999999E-02  0.0000000E+00
 -3.5999998E-02  0.0000000E+00
 -2.9999999E-02  0.0000000E+00
 -2.4000000E-02  0.0000000E+00
 -1.7999999E-02  0.0000000E+00
 -1.2000000E-02  0.0000000E+00
 -6.0000001E-03  0.0000000E+00
  3.4694470E-18  0.0000000E+00
  6.0000001E-03  0.0000000E+00
  1.2000000E-02  0.0000000E+00
  1.7999999E-02  0.0000000E+00
  2.4000000E-02  0.0000000E+00
  2.9999999E-02  0.0000000E+00
  3.5999998E-02  0.0000000E+00
  4.1999999E-02  0.0000000E+00
  4.8000000E-02  0.0000000E+00
  5.4000001E-02  0.0000000E+00
  5.9999999E-02  0.0000000E+00
  6.6000000E-02  0.0000000E+00
  7.1999997E-02  0.0000000E+00
  7.8000002E-02  0.0000000E+00
  8.3999999E-02  0.0000000E+00
  9.0000004E-02  0.0000000E+00
  9.6000001E-02  0.0000000E+00
  0.1020000      0.0000000E+00
  0.1080000      0.0000000E+00
  0.1140000      0.0000000E+00
  0.1200000      0.0000000E+00
  0.1260000      0.0000000E+00
  0.1320000      0.0000000E+00
  0.1380000      0.0000000E+00
  0.1440000      0.0000000E+00
  0.1500000      0.0000000E+00
  0.1560000      0.0000000E+00
  0.1620000      0.0000000E+00
  0.1680000      0.0000000E+00
  0.1740000      0.0000000E+00
  0.1800000      0.0000000E+00
  0.1860000      0.0000000E+00
  0.1920000      0.0000000E+00
  0.1980000      0.0000000E+00
  0.2040000      0.0000000E+00
  0.2100000      0.0000000E+00
  0.2160000      0.0000000E+00
  0.2220000      0.0000000E+00
  0.2280000      0.0000000E+00
  0.2340000      0.0000000E+00
  0.2400000      0.0000000E+00
  0.2460000      0.0000000E+00
  0.2520000      0.0000000E+00
  0.2580000      0.0000000E+00
  0.2640000      0.0000000E+00
  0.2700000      0.0000000E+00
  0.2760000      0.0000000E+00
  0.2820000      0.0000000E+00
  0.2880000      0.0000000E+00
  0.2940000      0.0000000E+00
  0.3000000      0.0000000E+00
  0.3060000      0.0000000E+00
  0.3120000      0.0000000E+00
  0.3180000      0.0000000E+00
  0.3240000      0.0000000E+00
  0.3300000      0.0000000E+00
  0.3360000      0.0000000E+00
  0.3420000      0.0000000E+00
  0.3480000      0.0000000E+00
  0.3540000      0.0000000E+00
  0.3600000      0.0000000E+00
  0.3660000      0.0000000E+00
  0.3720000      0.0000000E+00
  0.3780000      0.0000000E+00
  0.3840000      0.0000000E+00
  0.3900000      0.0000000E+00
  0.3960000      0.0000000E+00
  0.4020000      0.0000000E+00
  0.4080000      0.0000000E+00
  0.4140000      0.0000000E+00
  0.4200000      0.0000000E+00
  0.4260000      0.0000000E+00
  0.4320000      0.0000000E+00
  0.4380000      0.0000000E+00
  0.4440000      0.0000000E+00
  0.4500000      0.0000000E+00
  0.4560000      0.0000000E+00
  0.4620000      0.0000000E+00
  0.4680000      0.0000000E+00
  0.4740000      0.0000000E+00
  0.4800000      0.0000000E+00
  0.4860000      0.0000000E+00
  0.4920000      0.0000000E+00
  0.4980000      0.0000000E+00
  0.5040000      0.0000000E+00
  0.5100000      0.0000000E+00
  0.5160000      0.0000000E+00
  0.5220000      0.0000000E+00
  0.5280000      0.0000000E+00
  0.5340000      0.0000000E+00
  0.5400000      0.0000000E+00
  0.5460000      0.0000000E+00
  0.5520000      0.0000000E+00
  0.5580000      0.0000000E+00
  0.5640000      0.0000000E+00
  0.5700000      0.0000000E+00
  0.5760000      0.0000000E+00
  0.5820000      0.0000000E+00
  0.5880000      0.0000000E+00
  0.5940000      0.0000000E+00
  0.6000000      0.0000000E+00
  0.6060000      0.0000000E+00
  0.6120000      0.0000000E+00
  0.6180000      0.0000000E+00
  0.6240000      0.0000000E+00
  0.6300000      0.0000000E+00
  0.6360000      0.0000000E+00
  0.6420000      0.0000000E+00
  0.6480000      0.0000000E+00
  0.6540000      0.0000000E+00
  0.6600000      0.0000000E+00
  0.6660000      0.0000000E+00
  0.6720000      0.0000000E+00
  0.6780000      0.0000000E+00
  0.6840000      0.0000000E+00
  0.6900000      0.0000000E+00
  0.6960000      0.0000000E+00
  0.7020000      0.0000000E+00
  0.7080000      0.0000000E+00
  0.7140000      0.0000000E+00
  0.7200000      0.0000000E+00
  0.7260000      0.0000000E+00
  0.7320000      0.0000000E+00
  0.7380000      0.0000000E+00
  0.7440000      0.0000000E+00
  0.7500000      0.0000000E+00
  0.7560000      0.0000000E+00
  0.7620000      0.0000000E+00
  0.7680000      0.0000000E+00
  0.7740000      0.0000000E+00
  0.7800000      0.0000000E+00
  0.7860000      0.0000000E+00
  0.7920000      0.0000000E+00
  0.7980000      0.0000000E+00
  0.8040000      0.0000000E+00
  0.8100000      0.0000000E+00
  0.8160000      0.0000000E+00
  0.8220000      0.0000000E+00
  0.8280000      0.0000000E+00
  0.8340000      0.0000000E+00
  0.8400000      0.0000000E+00
  0.8460000      0.0000000E+00
  0.8520000      0.0000000E+00
  0.8580000      0.0000000E+00
  0.8640000      0.0000000E+00
  0.8700000      0.0000000E+00
  0.8760000      0.0000000E+00
  0.8820000      0.0000000E+00
  0.8880000      0.0000000E+00
  0.8940000      0.0000000E+00
  0.9000000      0.0000000E+00
  0.9060000      0.0000000E+00
  0.9120000      0.0000000E+00
  0.9180000      0.0000000E+00
  0.9240000      0.0000000E+00
  0.9300000      0.0000000E+00
  0.9360000      0.0000000E+00
  0.9420000      0.0000000E+00
  0.9480000      0.0000000E+00
  0.9540000      0.0000000E+00
  0.9600000      0.0000000E+00
  0.9660000      0.0000000E+00
  0.9720000      0.0000000E+00
  0.9780000      0.0000000E+00
  0.9840000      0.0000000E+00
  0.9900000      0.0000000E+00
  0.9960000      0.0000000E+00
   1.002000      0.0000000E+00
   1.008000      0.0000000E+00
   1.014000      0.0000000E+00
   1.020000      0.0000000E+00
   1.026000      0.0000000E+00
   1.032000      0.0000000E+00
   1.038000      0.0000000E+00
   1.044000      0.0000000E+00
   1.050000      0.0000000E+00
   1.056000      0.0000000E+00
   1.062000      0.0000000E+00
   1.068000      0.0000000E+00
   1.074000      0.0000000E+00
   1.080000      0.0000000E+00
   1.086000      0.0000000E+00
   1.092000      0.0000000E+00
   1.098000      0.0000000E+00
   1.104000      0.0000000E+00
   1.110000      0.0000000E+00
   1.116000      0.0000000E+00
   1.122000      0.0000000E+00
   1.128000      0.0000000E+00
   1.134000      0.0000000E+00
   1.140000      0.0000000E+00
   1.146000      0.0000000E+00
   1.152000      0.0000000E+00
   1.158000      0.0000000E+00
   1.164000      0.0000000E+00
   1.170000      0.0000000E+00
   1.176000      0.0000000E+00
   1.182000      0.0000000E+00
   1.188000      0.0000000E+00
   1.194000      0.0000000E+00
   1.200000      0.0000000E+00
   1.206000      0.0000000E+00
   1.212000      0.0000000E+00
   1.218000      0.0000000E+00
   1.224000      0.0000000E+00
   1.230000      0.0000000E+00
   1.236000      0.0000000E+00
   1.242000      0.0000000E+00
   1.248000      0.0000000E+00
   1.254000      0.0000000E+00
   1.260000      0.0000000E+00
   1.266000      0.0000000E+00
   1.272000      0.0000000E+00
   1.278000      0.0000000E+00
   1.284000      0.0000000E+00
   1.290000      0.0000000E+00
   1.296000      0.0000000E+00
   1.302000      0.0000000E+00
   1.308000      0.0000000E+00
   1.314000      0.0000000E+00
   1.320000      0.0000000E+00
   1.326000      0.0000000E+00
   1.332000      0.0000000E+00
   1.338000      0.0000000E+00
   1.344000      0.0000000E+00
   1.350000      0.0000000E+00
   1.356000      0.0000000E+00
   1.362000      0.0000000E+00
   1.368000      0.0000000E+00
   1.374000      0.0000000E+00
   1.380000      0.0000000E+00
   1.386000      0.0000000E+00
   1.392000      0.0000000E+00
   1.398000      0.0000000E+00
   1.404000      0.0000000E+00
   1.410000      0.0000000E+00
   1.416000      0.0000000E+00
   1.422000      0.0000000E+00
   1.428000      0.0000000E+00
   1.434000      0.0000000E+00
   1.440000      0.0000000E+00
   1.446000      0.0000000E+00
   1.452000      0.0000000E+00
   1.458000      0.0000000E+00
   1.464000      0.0000000E+00
   1.470000      0.0000000E+00
   1.476000      0.0000000E+00
   1.482000      0.0000000E+00
   1.488000      0.0000000E+00
   1.494000      0.0000000E+00
   1.500000      0.0000000E+00
   1.506000      0.0000000E+00
   1.512000      0.0000000E+00
   1.518000      0.0000000E+00
   1.524000      0.0000000E+00
   1.530000      0.0000000E+00
   1.536000      0.0000000E+00
   1.542000      0.0000000E+00
   1.548000      0.0000000E+00
   1.554000      0.0000000E+00
   1.560000      0.0000000E+00
   1.566000      0.0000000E+00
   1.572000      0.0000000E+00
   1.578000      0.0000000E+00
   1.584000      0.0000000E+00
   1.590000      0.0000000E+00
   1.596000      0.0000000E+00
   1.602000      0.0000000E+00
   1.608000      0.0000000E+00
   1.614000      0.0000000E+00
   1.620000      0.0000000E+00
   1.626000      0.0000000E+00
   1.632000      0.0000000E+00
   1.638000      0.0000000E+00
   1.644000      0.0000000E+00
   1.650000      0.0000000E+00
   1.656000      0.0000000E+00
   1.662000      0.0000000E+00
   1.668000      0.0000000E+00
   1.674000      0.0000000E+00
   1.680000      0.0000000E+00
   1.686000      0.0000000E+00
   1.692000      0.0000000E+00
   1.698000      0.0000000E+00
   1.704000      0.0000000E+00
   1.710000      0.0000000E+00
   1.716000      0.0000000E+00
   1.722000      0.0000000E+00
   1.728000      0.0000000E+00
   1.734000      0.0000000E+00
   1.740000      0.0000000E+00
   1.746000      0.0000000E+00
   1.752000      0.0000000E+00
   1.758000      0.0000000E+00
   1.764000      0.0000000E+00
   1.770000      0.0000000E+00
   1.776000     -1.2637578E-38
   1.782000     -3.1957609E-38
   1.788000     -5.5404897E-38
   1.794000     -7.2677005E-38
   1.800000     -7.5011355E-38
   1.806000     -5.9999301E-38
   1.812000     -1.9112394E-38
   1.818000      2.0724071E-38
   1.824000      6.0575801E-38
   1.830000      9.1068610E-38
   1.836000      1.1239761E-37
   1.842000      1.0286350E-37
   1.848000      8.7914887E-38
   1.854000      7.0795779E-38
   1.860000      4.3527363E-38
   1.866000      1.4644326E-38
   1.872000     -2.4742231E-38
   1.878000     -7.5942316E-38
   1.884000     -1.1097886E-37
   1.890000     -1.1721308E-37
   1.896000     -9.8190979E-38
   1.902000     -8.5060482E-38
   1.908000     -7.6895093E-38
   1.914000     -7.4657298E-38
   1.920000     -8.2592487E-38
   1.926000     -1.0452312E-37
   1.932000     -1.3778062E-37
   1.938000     -1.4809161E-37
   1.944000     -1.4300448E-37
   1.950000     -1.1608870E-37
   1.956000     -5.3179445E-38
   1.962000      1.8691192E-38
   1.968000      1.1387840E-37
   1.974000      2.0487340E-37
   1.980000      2.8694294E-37
   1.986000      4.0038433E-37
   1.992000      4.6358469E-37
   1.998000      4.6300982E-37
   2.004000      4.9795430E-37
   2.010000      6.1183543E-37
   2.016000      8.1021678E-37
   2.022000      1.0973966E-36
   2.028000      1.4454845E-36
   2.034000      1.7628767E-36
   2.040000      1.8648614E-36
   2.046000      1.6347841E-36
   2.052000      9.9577740E-37
   2.058000     -4.5362231E-38
   2.064000     -1.3933698E-36
   2.070000     -2.9538925E-36
   2.076000     -4.5936617E-36
   2.082000     -6.1638694E-36
   2.088000     -7.5661149E-36
   2.094000     -8.6184715E-36
   2.100000     -9.1076555E-36
   2.106000     -8.7957628E-36
   2.112000     -7.3481405E-36
   2.118000     -4.4995031E-36
   2.124000     -5.1277530E-38
   2.130000      5.9235649E-36
   2.136000      1.3134182E-35
   2.142000      2.0969683E-35
   2.148000      2.8560211E-35
   2.154000      3.4870231E-35
   2.160000      3.8737274E-35
   2.166000      3.9044785E-35
   2.172000      3.4812406E-35
   2.178000      2.5335427E-35
   2.184000      1.0293882E-35
   2.190000     -1.0100478E-35
   2.196000     -3.5004976E-35
   2.202000     -6.2811904E-35
   2.208000     -9.1155827E-35
   2.214000     -1.1690311E-34
   2.220000     -1.3632114E-34
   2.226000     -1.4534775E-34
   2.232000     -1.4006819E-34
   2.238000     -1.1719627E-34
   2.244000     -7.4659635E-35
   2.250000     -1.2155867E-35
   2.256000      6.8369185E-35
   2.262000      1.6241393E-34
   2.268000      2.6280557E-34
   2.274000      3.5985842E-34
   2.280000      4.4182365E-34
   2.286000      4.9566607E-34
   2.292000      5.0821979E-34
   2.298000      4.6755246E-34
   2.304000      3.6461075E-34
   2.310000      1.9495259E-34
   2.316000     -3.9597041E-35
   2.322000     -3.2957496E-34
   2.328000     -6.5702411E-34
   2.334000     -9.9537326E-34
   2.340000     -1.3102516E-33
   2.346000     -1.5613548E-33
   2.352000     -1.7054078E-33
   2.358000     -1.7001522E-33
   2.364000     -1.5091724E-33
   2.370000     -1.1072373E-33
   2.376000     -4.8572565E-34
   2.382000      3.4242327E-34
   2.388000      1.3388657E-33
   2.394000      2.4377900E-33
   2.400000      3.5462865E-33
   2.406000      4.5477107E-33
   2.412000      5.3084094E-33
   2.418000      5.6879141E-33
   2.424000      5.5523517E-33
   2.430000      4.7904183E-33
   2.436000      3.3308070E-33
   2.442000      1.1595780E-33
   2.448000     -1.6644331E-33
   2.454000     -4.9982846E-33
   2.460000     -8.6098959E-33
   2.466000     -1.2181361E-32
   2.472000     -1.5322268E-32
   2.478000     -1.7594003E-32
   2.484000     -1.8545093E-32
   2.490000     -1.7756452E-32
   2.496000     -1.4894070E-32
   2.502000     -9.7652525E-33
   2.508000     -2.3732160E-33
   2.514000      7.0362866E-33
   2.520000      1.7943288E-32
   2.526000      2.9543891E-32
   2.532000      4.0768859E-32
   2.538000      5.0335244E-32
   2.544000      5.6833371E-32
   2.550000      5.8848110E-32
   2.556000      5.5109567E-32
   2.562000      4.4663687E-32
   2.568000      2.7049145E-32
   2.574000      2.4626037E-33
   2.580000     -2.8108245E-32
   2.586000     -6.2806052E-32
   2.592000     -9.8900934E-32
   2.598000     -1.3288133E-31
   2.604000     -1.6065066E-31
   2.610000     -1.7783277E-31
   2.616000     -1.8017802E-31
   2.622000     -1.6404906E-31
   2.628000     -1.2695158E-31
   2.634000     -6.8062569E-32
   2.640000      1.1302059E-32
   2.646000      1.0734522E-31
   2.652000      2.1363752E-31
   2.658000      3.2121667E-31
   2.664000      4.1898324E-31
   2.670000      4.9441518E-31
   2.676000      5.3459438E-31
   2.682000      5.2750290E-31
   2.688000      4.6350636E-31
   2.694000      3.3690543E-31
   2.700000      1.4740193E-31
   2.706000     -9.8697104E-32
   2.712000     -3.8772400E-31
   2.718000     -6.9852106E-31
   2.724000     -1.0030864E-30
   2.730000     -1.2680906E-30
   2.736000     -1.4572865E-30
   2.742000     -1.5347435E-30
   2.748000     -1.4687301E-30
   2.754000     -1.2359648E-30
   2.760000     -8.2585305E-31
   2.766000     -2.4425150E-31
   2.772000      4.8374136E-31
   2.778000      1.3124684E-30
   2.784000      2.1763123E-30
   2.790000      2.9925329E-30
   2.796000      3.6664929E-30
   2.802000      4.0991993E-30
   2.808000      4.1968244E-30
   2.814000      3.8815899E-30
   2.820000      3.1031364E-30
   2.826000      1.8492697E-30
   2.832000      1.5481639E-31
   2.838000     -1.8927199E-30
   2.844000     -4.1519277E-30
   2.850000     -6.4316822E-30
   2.856000     -8.5013677E-30
   2.862000     -1.0107211E-29
   2.868000     -1.0994179E-29
   2.874000     -1.0932195E-29
   2.880000     -9.7447481E-30
   2.886000     -7.3373620E-30
   2.892000     -3.7229215E-30
   2.898000      9.5936740E-31
   2.904000      6.4345440E-30
   2.910000      1.2294742E-29
   2.916000      1.8016307E-29
   2.922000      2.2992047E-29
   2.928000      2.6578032E-29
   2.934000      2.8152817E-29
   2.940000      2.7185145E-29
   2.946000      2.3304763E-29
   2.952000      1.6369497E-29
   2.958000      6.5211055E-30
   2.964000     -5.7779316E-30
   2.970000     -1.9733794E-29
   2.976000     -3.4242634E-29
   2.982000     -4.7947245E-29
   2.988000     -5.9329536E-29
   2.994000     -6.6835625E-29
   3.000000     -6.9026479E-29
   3.006000     -6.4743349E-29
   3.012000     -5.3273455E-29
   3.018000     -3.4499493E-29
   3.024000     -9.0146469E-30
   3.030000      2.1814261E-29
   3.036000      5.5850843E-29
   3.042000      9.0271382E-29
   3.048000      1.2173004E-28
   3.054000      1.4660434E-28
   3.060000      1.6130957E-28
   3.066000      1.6266212E-28
   3.072000      1.4826338E-28
   3.078000      1.1686956E-28
   3.084000      6.8707882E-29
   3.090000      5.6991051E-30
   3.096000     -6.8451396E-29
   3.102000     -1.4832462E-28
   3.108000     -2.2704042E-28
   3.114000     -2.9669598E-28
   3.120000     -3.4897687E-28
   3.126000     -3.7590785E-28
   3.132000     -3.7069163E-28
   3.138000     -3.2856668E-28
   3.144000     -2.4760237E-28
   3.150000     -1.2934416E-28
   3.156000      2.0779173E-29
   3.162000      1.9336227E-28
   3.168000      3.7530301E-28
   3.174000      5.5048581E-28
   3.180000      7.0086526E-28
   3.186000      8.0790768E-28
   3.192000      8.5430574E-28
   3.198000      8.2584415E-28
   3.204000      7.1325804E-28
   3.210000      5.1390508E-28
   3.216000      2.3306088E-28
   3.222000     -1.1534550E-28
   3.228000     -5.0871051E-28
   3.234000     -9.1656200E-28
   3.240000     -1.3022393E-27
   3.246000     -1.6254188E-27
   3.252000     -1.8453741E-27
   3.258000     -1.9247705E-27
   3.264000     -1.8337178E-27
   3.270000     -1.5537374E-27
   3.276000     -1.0812616E-27
   3.282000     -4.3026657E-28
   3.288000      3.6633256E-28
   3.294000      1.2568409E-27
   3.300000      2.1727099E-27
   3.306000      3.0323172E-27
   3.312000      3.7465196E-27
   3.318000      4.2257345E-27
   3.324000      4.3881181E-27
   3.330000      4.1682532E-27
   3.336000      3.5256309E-27
   3.342000      2.4521225E-27
   3.348000      9.7762457E-28
   3.354000     -8.2688926E-28
   3.360000     -2.8495538E-27
   3.366000     -4.9414790E-27
   3.372000     -6.9244793E-27
   3.378000     -8.6025243E-27
   3.384000     -9.7764487E-27
   3.390000     -1.0261078E-26
   3.396000     -9.9036425E-27
   3.402000     -8.6020220E-27
   3.408000     -6.3212549E-27
   3.414000     -3.1066169E-27
   3.420000      9.0833029E-28
   3.426000      5.5001012E-27
   3.432000      1.0361089E-26
   3.438000      1.5113341E-26
   3.444000      1.9330254E-26
   3.450000      2.2565466E-26
   3.456000      2.4387544E-26
   3.462000      2.4418404E-26
   3.468000      2.2372807E-26
   3.474000      1.8095862E-26
   3.480000      1.1595144E-26
   3.486000      3.0640715E-27
   3.492000     -7.1065675E-27
   3.498000     -1.8331536E-26
   3.504000     -2.9850250E-26
   3.510000     -4.0762754E-26
   3.516000     -5.0081987E-26
   3.522000     -5.6800432E-26
   3.528000     -5.9967869E-26
   3.534000     -5.8775666E-26
   3.540000     -5.2641933E-26
   3.546000     -4.1290995E-26
   3.552000     -2.4820327E-26
   3.558000     -3.7478316E-27
   3.564000      2.0966844E-26
   3.570000      4.7932356E-26
   3.576000      7.5370680E-26
   3.582000      1.0119858E-25
   3.588000      1.2314442E-25
   3.594000      1.3889643E-25
   3.600000      1.4627572E-25
   3.606000      1.4342434E-25
   3.612000      1.2899645E-25
   3.618000      1.0233845E-25
   3.624000      6.3642968E-26
   3.630000      1.4060769E-26
   3.636000     -4.4244031E-26
   3.642000     -1.0810836E-25
   3.648000     -1.7346356E-25
   3.654000     -2.3551253E-25
   3.660000     -2.8898970E-25
   3.666000     -3.2849647E-25
   3.672000     -3.4889730E-25
   3.678000     -3.4575594E-25
   3.684000     -3.1578326E-25
   3.690000     -2.5726480E-25
   3.696000     -1.7043113E-25
   3.702000     -5.7734104E-26
   3.708000      7.6007475E-26
   3.714000      2.2362427E-25
   3.720000      3.7579901E-25
   3.726000      5.2146876E-25
   3.732000      6.4842582E-25
   3.738000      7.4410232E-25
   3.744000      7.9650359E-25
   3.750000      7.9524018E-25
   3.756000      7.3259195E-25
   3.762000      6.0452388E-25
   3.768000      4.1156498E-25
   3.774000      1.5945858E-25
   3.780000     -1.4050508E-25
   3.786000     -4.7155058E-25
   3.792000     -8.1193168E-25
   3.798000     -1.1359284E-24
   3.804000     -1.4153231E-24
   3.810000     -1.6213107E-24
   3.816000     -1.7267564E-24
   3.822000     -1.7086680E-24
   3.828000     -1.5507137E-24
   3.834000     -1.2455844E-24
   3.840000     -7.9697730E-25
   3.846000     -2.2097826E-25
   3.852000      4.5336778E-25
   3.858000      1.1844760E-24
   3.864000      1.9197508E-24
   3.870000      2.5982751E-24
   3.876000      3.1546197E-24
   3.882000      3.5236291E-24
   3.888000      3.6459447E-24
   3.894000      3.4739087E-24
   3.900000      2.9774245E-24
   3.906000      2.1492665E-24
   3.912000      1.0093088E-24
   3.918000     -3.9285468E-25
   3.924000     -1.9773737E-24
   3.930000     -3.6360674E-24
   3.936000     -5.2370393E-24
   3.942000     -6.6320317E-24
   3.948000     -7.6663325E-24
   3.954000     -8.1908154E-24
   3.960000     -8.0754539E-24
   3.966000     -7.2234060E-24
   3.972000     -5.5845881E-24
   3.978000     -3.1675369E-24
   3.984000     -4.8286802E-26
   3.990000      3.6249385E-24
   3.996000      7.6322695E-24
   4.002000      1.1688756E-23
   4.008000      1.5457357E-23
   4.014000      1.8568301E-23
   4.020000      2.0644230E-23
   4.026000      2.1329967E-23
   4.032000      2.0325222E-23
   4.038000      1.7418019E-23
   4.044000      1.2516277E-23
   4.050000      5.6747119E-24
   4.056000     -2.8858179E-24
   4.062000     -1.2769202E-23
   4.068000     -2.3407491E-23
   4.074000     -3.4078419E-23
   4.080000     -4.3937820E-23
   4.086000     -5.2066549E-23
   4.092000     -5.7530452E-23
   4.098000     -5.9450571E-23
   4.104000     -5.7079691E-23
   4.110000     -4.9880224E-23
   4.116000     -3.7597571E-23
   4.122000     -2.0322803E-23
   4.128000      1.4617204E-24
   4.134000      2.6859628E-23
   4.140000      5.4565597E-23
   4.146000      8.2901771E-23
   4.152000      1.0988689E-22
   4.158000      1.3333776E-22
   4.164000      1.5099973E-22
   4.170000      1.6070031E-22
   4.176000      1.6051814E-22
   4.182000      1.4895641E-22
   4.188000      1.2510931E-22
   4.194000      8.8807979E-23
   4.200000      4.0733199E-23
   4.206000     -1.7517472E-23
   4.212000     -8.3418664E-23
   4.218000     -1.5356980E-22
   4.224000     -2.2381541E-22
   4.230000     -2.8943271E-22
   4.236000     -3.4538135E-22
   4.242000     -3.8660531E-22
   4.248000     -4.0837171E-22
   4.254000     -4.0662814E-22
   4.260000     -3.7835518E-22
   4.266000     -3.2189057E-22
   4.272000     -2.3719901E-22
   4.278000     -1.2606471E-22
   4.284000      7.8153649E-24
   4.290000      1.5885311E-22
   4.296000      3.1971634E-22
   4.302000      4.8160415E-22
   4.308000      6.3464453E-22
   4.314000      7.6840111E-22
   4.320000      8.7246491E-22
   4.326000      9.3710284E-22
   4.332000      9.5392433E-22
   4.338000      9.1652753E-22
   4.344000      8.2108106E-22
   4.350000      6.6679961E-22
   4.356000      4.5627609E-22
   4.362000      1.9563786E-22
   4.368000     -1.0549570E-22
   4.374000     -4.3426583E-22
   4.380000     -7.7503693E-22
   4.386000     -1.1100559E-21
   4.392000     -1.4202815E-21
   4.398000     -1.6863462E-21
   4.404000     -1.8896020E-21
   4.410000     -2.0131950E-21
   4.416000     -2.0431078E-21
   4.422000     -1.9691097E-21
   4.428000     -1.7855574E-21
   4.434000     -1.4919941E-21
   4.440000     -1.0935083E-21
   4.446000     -6.0082277E-22
   4.452000     -3.0103049E-23
   4.458000      5.9751228E-22
   4.464000      1.2566418E-21
   4.470000      1.9186196E-21
   4.476000      2.5526353E-21
   4.482000      3.1270079E-21
   4.488000      3.6105266E-21
   4.494000      3.9738064E-21
   4.500000      4.1905911E-21
   4.506000      4.2389585E-21
   4.512000      4.1023784E-21
   4.518000      3.7705893E-21
   4.524000      3.2402807E-21
   4.530000      2.5155627E-21
   4.536000      1.6082274E-21
   4.542000      5.3781220E-22
   4.548000     -6.6852703E-22
   4.554000     -1.9763185E-21
   4.560000     -3.3442464E-21
   4.566000     -4.7247874E-21
   4.572000     -6.0650227E-21
   4.578000     -7.3076383E-21
   4.584000     -8.3921472E-21
   4.590000     -9.2563603E-21
   4.596000     -9.8381469E-21
   4.602000     -1.0077521E-20
   4.608000     -9.9190741E-21
   4.614000     -9.3147581E-21
   4.620000     -8.2270043E-21
   4.626000     -6.6320882E-21
   4.632000     -4.5236646E-21
   4.638000     -1.9162911E-21
   4.644000      1.1512510E-21
   4.650000      4.6131002E-21
   4.656000      8.3742061E-21
   4.662000      1.2309287E-20
   4.668000      1.6263175E-20
   4.674000      2.0052865E-20
   4.680000      2.3471510E-20
   4.686000      2.6294621E-20
   4.692000      2.8288465E-20
   4.698000      2.9220730E-20
   4.704000      2.8873198E-20
   4.710000      2.7056086E-20
   4.716000      2.3623516E-20
   4.722000      1.8489383E-20
   4.728000      1.1642716E-20
   4.734000      3.1615328E-21
   4.740000     -6.7759473E-21
   4.746000     -1.7883895E-20
   4.752000     -2.9766424E-20
   4.758000     -4.1921077E-20
   4.764000     -5.3749169E-20
   4.770000     -6.4573447E-20
   4.776000     -7.3663374E-20
   4.782000     -8.0267674E-20
   4.788000     -8.3653467E-20
   4.794000     -8.3150754E-20
   4.800000     -7.8200337E-20
   4.806000     -6.8403022E-20
   4.812000     -5.3567199E-20
   4.818000     -3.3751822E-20
   4.824000     -9.3014634E-21
   4.830000      1.9129941E-20
   4.836000      5.0569764E-20
   4.842000      8.3734569E-20
   4.848000      1.1705734E-19
   4.854000      1.4873537E-19
   4.860000      1.7679901E-19
   4.866000      1.9920024E-19
   4.872000      2.1391877E-19
   4.878000      2.1908178E-19
   4.884000      2.1309226E-19
   4.890000      1.9475949E-19
   4.896000      1.6342419E-19
   4.902000      1.1907006E-19
   4.908000      6.2413420E-20
   4.914000     -5.0379379E-21
   4.920000     -8.0963928E-20
   4.926000     -1.6225630E-19
   4.932000     -2.4509222E-19
   4.938000     -3.2505962E-19
   4.944000     -3.9733406E-19
   4.950000     -4.5690303E-19
   4.956000     -4.9883085E-19
   4.962000     -5.1855405E-19
   4.968000     -5.1219261E-19
   4.974000     -4.7686213E-19
   4.980000     -4.1096652E-19
   4.986000     -3.1445292E-19
   4.992000     -1.8900773E-19
   4.998000     -3.8175083E-20
   5.004000      1.3261939E-19
   5.010000      3.1615257E-19
   5.016000      5.0360415E-19
   5.022000      6.8487546E-19
   5.028000      8.4902247E-19
   5.034000      9.8479068E-19
   5.040000      1.0812327E-18
   5.046000      1.1283806E-18
   5.052000      1.1179412E-18
   5.058000      1.0439721E-18
   5.064000      9.0350043E-19
   5.070000      6.9703584E-19
   5.076000      4.2893849E-19
   5.082000      1.0760092E-19
   5.088000     -2.5458706E-19
   5.094000     -6.4151372E-19
   5.100000     -1.0338711E-18
   5.106000     -1.4099286E-18
   5.112000     -1.7465344E-18
   5.118000     -2.0203113E-18
   5.124000     -2.2089962E-18
   5.130000     -2.2928588E-18
   5.136000     -2.2561246E-18
   5.142000     -2.0883144E-18
   5.148000     -1.7854162E-18
   5.154000     -1.3507970E-18
   5.160000     -7.9577541E-19
   5.166000     -1.3978526E-19
   5.172000      5.8992355E-19
   5.178000      1.3590752E-18
   5.184000      2.1276535E-18
   5.190000      2.8516549E-18
   5.196000      3.4852552E-18
   5.202000      3.9832973E-18
   5.208000      4.3039903E-18
   5.214000      4.4116723E-18
   5.220000      4.2794905E-18
   5.226000      3.8918174E-18
   5.232000      3.2462455E-18
   5.238000      2.3549966E-18
   5.244000      1.2456071E-18
   5.250000     -3.9220833E-20
   5.256000     -1.4426685E-18
   5.262000     -2.8957767E-18
   5.268000     -4.3203126E-18
   5.274000     -5.6324465E-18
   5.280000     -6.7470864E-18
   5.286000     -7.5826877E-18
   5.292000     -8.0662823E-18
   5.298000     -8.1384638E-18
   5.304000     -7.7580219E-18
   5.310000     -6.9059365E-18
   5.316000     -5.5884177E-18
   5.322000     -3.8387603E-18
   5.328000     -1.7177791E-18
   5.334000      6.8731192E-19
   5.340000      3.2656400E-18
   5.346000      5.8870122E-18
   5.352000      8.4077375E-18
   5.358000      1.0677702E-17
   5.364000      1.2548401E-17
   5.370000      1.3881530E-17
   5.376000      1.4557689E-17
   5.382000      1.4484695E-17
   5.388000      1.3605002E-17
   5.394000      1.1901704E-17
   5.400000      9.4027026E-18
   5.406000      6.1826200E-18
   5.412000      2.3621956E-18
   5.418000     -1.8949914E-18
   5.424000     -6.3884900E-18
   5.430000     -1.0889480E-17
   5.436000     -1.5151527E-17
   5.442000     -1.8923105E-17
   5.448000     -2.1961326E-17
   5.454000     -2.4046159E-17
   5.460000     -2.4994349E-17
   5.466000     -2.4672252E-17
   5.472000     -2.3006727E-17
   5.478000     -1.9993379E-17
   5.484000     -1.5701451E-17
   5.490000     -1.0274916E-17
   5.496000     -3.9293850E-18
   5.502000      3.0551889E-18
   5.508000      1.0345939E-17
   5.514000      1.7572208E-17
   5.520000      2.4343750E-17
   5.526000      3.0271194E-17
   5.532000      3.4987672E-17
   5.538000      3.8170524E-17
   5.544000      3.9561776E-17
   5.550000      3.8986177E-17
   5.556000      3.6365596E-17
   5.562000      3.1728762E-17
   5.568000      2.5215468E-17
   5.574000      1.7074704E-17
   5.580000      7.6564929E-18
   5.586000     -2.6024994E-18
   5.592000     -1.3199061E-17
   5.598000     -2.3588394E-17
   5.604000     -3.3212757E-17
   5.610000     -4.1532332E-17
   5.616000     -4.8056563E-17
   5.622000     -5.2374261E-17
   5.628000     -5.4180505E-17
   5.634000     -5.3298665E-17
   5.640000     -4.9695903E-17
   5.646000     -4.3490943E-17
   5.652000     -3.4953145E-17
   5.658000     -2.4492566E-17
   5.664000     -1.2641039E-17
   5.670000     -2.5002888E-20
   5.676000      1.2668708E-17
   5.682000      2.4732407E-17
   5.688000      3.5480225E-17
   5.694000      4.4291426E-17
   5.700000      5.0651693E-17
   5.706000      5.4189618E-17
   5.712000      5.4705749E-17
   5.718000      5.2191993E-17
   5.724000      4.6839410E-17
   5.730000      3.9033214E-17
   5.736000      2.9334538E-17