 -5.9999999E-02  0.0000000E+00
 -5.4000001E-02  0.0000000E+00
 -4.8000000E-02  0.0000000E+00
 -4.1999999E-02  0.0000000E+00
 -3.5999998E-02  0.0000000E+00
 -2.9999999E-02  0.0000000E+00
 -2.4000000E-02  0.0000000E+00
 -1.7999999E-02  0.0000000E+00
 -1.2000000E-02  0.0000000E+00
 -6.0000001E-03  0.0000000E+00
  3.4694470E-18  0.0000000E+00
  6.0000001E-03  0.0000000E+00
  1.2000000E-02  0.0000000E+00
  1.7999999E-02  0.0000000E+00
  2.4000000E-02  0.0000000E+00
  2.9999999E-02  0.0000000E+00
  3.5999998E-02  0.0000000E+00
  4.1999999E-02  0.0000000E+00
  4.8000000E-02  0.0000000E+00
  5.4000001E-02  0.0000000E+00
  5.9999999E-02  0.0000000E+00
  6.6000000E-02  0.0000000E+00
  7.1999997E-02  0.0000000E+00
  7.8000002E-02  0.0000000E+00
  8.3999999E-02  0.0000000E+00
  9.0000004E-02  0.0000000E+00
  9.6000001E-02  0.0000000E+00
  0.1020000      0.0000000E+00
  0.1080000      0.0000000E+00
  0.1140000      0.0000000E+00
  0.1200000      0.0000000E+00
  0.1260000      0.0000000E+00
  0.1320000      0.0000000E+00
  0.1380000      0.0000000E+00
  0.1440000      0.0000000E+00
  0.1500000      0.0000000E+00
  0.1560000      0.0000000E+00
  0.1620000      0.0000000E+00
  0.1680000      0.0000000E+00
  0.1740000      0.0000000E+00
  0.1800000      0.0000000E+00
  0.1860000      0.0000000E+00
  0.1920000      0.0000000E+00
  0.1980000      0.0000000E+00
  0.2040000      0.0000000E+00
  0.2100000      0.0000000E+00
  0.2160000      0.0000000E+00
  0.2220000      0.0000000E+00
  0.2280000      0.0000000E+00
  0.2340000      0.0000000E+00
  0.2400000      0.0000000E+00
  0.2460000      0.0000000E+00
  0.2520000      0.0000000E+00
  0.2580000      0.0000000E+00
  0.2640000      0.0000000E+00
  0.2700000      0.0000000E+00
  0.2760000      0.0000000E+00
  0.2820000      0.0000000E+00
  0.2880000      0.0000000E+00
  0.2940000      0.0000000E+00
  0.3000000      0.0000000E+00
  0.3060000      0.0000000E+00
  0.3120000      0.0000000E+00
  0.3180000      0.0000000E+00
  0.3240000      0.0000000E+00
  0.3300000      0.0000000E+00
  0.3360000      0.0000000E+00
  0.3420000      0.0000000E+00
  0.3480000      0.0000000E+00
  0.3540000      0.0000000E+00
  0.3600000      0.0000000E+00
  0.3660000      0.0000000E+00
  0.3720000      0.0000000E+00
  0.3780000      0.0000000E+00
  0.3840000      0.0000000E+00
  0.3900000      0.0000000E+00
  0.3960000      0.0000000E+00
  0.4020000      0.0000000E+00
  0.4080000      0.0000000E+00
  0.4140000      0.0000000E+00
  0.4200000      0.0000000E+00
  0.4260000      0.0000000E+00
  0.4320000      0.0000000E+00
  0.4380000      0.0000000E+00
  0.4440000      0.0000000E+00
  0.4500000      0.0000000E+00
  0.4560000      0.0000000E+00
  0.4620000      0.0000000E+00
  0.4680000      0.0000000E+00
  0.4740000      0.0000000E+00
  0.4800000      0.0000000E+00
  0.4860000      0.0000000E+00
  0.4920000      0.0000000E+00
  0.4980000      0.0000000E+00
  0.5040000      0.0000000E+00
  0.5100000      0.0000000E+00
  0.5160000      0.0000000E+00
  0.5220000      0.0000000E+00
  0.5280000      0.0000000E+00
  0.5340000      0.0000000E+00
  0.5400000      0.0000000E+00
  0.5460000      0.0000000E+00
  0.5520000      0.0000000E+00
  0.5580000      0.0000000E+00
  0.5640000      0.0000000E+00
  0.5700000      0.0000000E+00
  0.5760000      0.0000000E+00
  0.5820000      0.0000000E+00
  0.5880000      0.0000000E+00
  0.5940000      0.0000000E+00
  0.6000000      0.0000000E+00
  0.6060000      0.0000000E+00
  0.6120000      0.0000000E+00
  0.6180000      0.0000000E+00
  0.6240000      0.0000000E+00
  0.6300000      0.0000000E+00
  0.6360000      0.0000000E+00
  0.6420000      0.0000000E+00
  0.6480000      0.0000000E+00
  0.6540000      0.0000000E+00
  0.6600000      0.0000000E+00
  0.6660000      0.0000000E+00
  0.6720000      0.0000000E+00
  0.6780000      0.0000000E+00
  0.6840000      0.0000000E+00
  0.6900000      0.0000000E+00
  0.6960000      0.0000000E+00
  0.7020000      0.0000000E+00
  0.7080000      0.0000000E+00
  0.7140000      0.0000000E+00
  0.7200000      0.0000000E+00
  0.7260000      0.0000000E+00
  0.7320000      0.0000000E+00
  0.7380000      0.0000000E+00
  0.7440000      0.0000000E+00
  0.7500000      0.0000000E+00
  0.7560000      0.0000000E+00
  0.7620000      0.0000000E+00
  0.7680000      0.0000000E+00
  0.7740000      0.0000000E+00
  0.7800000      0.0000000E+00
  0.7860000      0.0000000E+00
  0.7920000      0.0000000E+00
  0.7980000      0.0000000E+00
  0.8040000      0.0000000E+00
  0.8100000      0.0000000E+00
  0.8160000      0.0000000E+00
  0.8220000      0.0000000E+00
  0.8280000      0.0000000E+00
  0.8340000      0.0000000E+00
  0.8400000      0.0000000E+00
  0.8460000      0.0000000E+00
  0.8520000      0.0000000E+00
  0.8580000      0.0000000E+00
  0.8640000      0.0000000E+00
  0.8700000      0.0000000E+00
  0.8760000      0.0000000E+00
  0.8820000      0.0000000E+00
  0.8880000      0.0000000E+00
  0.8940000      0.0000000E+00
  0.9000000      0.0000000E+00
  0.9060000      0.0000000E+00
  0.9120000      0.0000000E+00
  0.9180000      0.0000000E+00
  0.9240000      0.0000000E+00
  0.9300000      0.0000000E+00
  0.9360000      0.0000000E+00
  0.9420000      0.0000000E+00
  0.9480000      0.0000000E+00
  0.9540000      0.0000000E+00
  0.9600000      0.0000000E+00
  0.9660000      0.0000000E+00
  0.9720000      0.0000000E+00
  0.9780000      0.0000000E+00
  0.9840000      0.0000000E+00
  0.9900000      0.0000000E+00
  0.9960000      0.0000000E+00
   1.002000      0.0000000E+00
   1.008000      0.0000000E+00
   1.014000      0.0000000E+00
   1.020000      0.0000000E+00
   1.026000      0.0000000E+00
   1.032000      0.0000000E+00
   1.038000      0.0000000E+00
   1.044000      0.0000000E+00
   1.050000      0.0000000E+00
   1.056000      0.0000000E+00
   1.062000      0.0000000E+00
   1.068000      0.0000000E+00
   1.074000      0.0000000E+00
   1.080000      0.0000000E+00
   1.086000      0.0000000E+00
   1.092000      0.0000000E+00
   1.098000      0.0000000E+00
   1.104000      0.0000000E+00
   1.110000      0.0000000E+00
   1.116000      0.0000000E+00
   1.122000      0.0000000E+00
   1.128000      0.0000000E+00
   1.134000      0.0000000E+00
   1.140000      0.0000000E+00
   1.146000      0.0000000E+00
   1.152000      0.0000000E+00
   1.158000      0.0000000E+00
   1.164000      0.0000000E+00
   1.170000      0.0000000E+00
   1.176000      0.0000000E+00
   1.182000      0.0000000E+00
   1.188000      0.0000000E+00
   1.194000      0.0000000E+00
   1.200000      0.0000000E+00
   1.206000      0.0000000E+00
   1.212000      0.0000000E+00
   1.218000      0.0000000E+00
   1.224000      0.0000000E+00
   1.230000      0.0000000E+00
   1.236000      0.0000000E+00
   1.242000      0.0000000E+00
   1.248000      0.0000000E+00
   1.254000      0.0000000E+00
   1.260000      0.0000000E+00
   1.266000      0.0000000E+00
   1.272000      0.0000000E+00
   1.278000      0.0000000E+00
   1.284000      0.0000000E+00
   1.290000      0.0000000E+00
   1.296000      0.0000000E+00
   1.302000      0.0000000E+00
   1.308000      0.0000000E+00
   1.314000      0.0000000E+00
   1.320000      0.0000000E+00
   1.326000      0.0000000E+00
   1.332000      0.0000000E+00
   1.338000      0.0000000E+00
   1.344000      0.0000000E+00
   1.350000      0.0000000E+00
   1.356000      0.0000000E+00
   1.362000      0.0000000E+00
   1.368000      0.0000000E+00
   1.374000      0.0000000E+00
   1.380000      0.0000000E+00
   1.386000      0.0000000E+00
   1.392000      0.0000000E+00
   1.398000      0.0000000E+00
   1.404000      0.0000000E+00
   1.410000      0.0000000E+00
   1.416000      0.0000000E+00
   1.422000      0.0000000E+00
   1.428000      0.0000000E+00
   1.434000      0.0000000E+00
   1.440000      0.0000000E+00
   1.446000      0.0000000E+00
   1.452000      0.0000000E+00
   1.458000      0.0000000E+00
   1.464000      0.0000000E+00
   1.470000      0.0000000E+00
   1.476000      0.0000000E+00
   1.482000      0.0000000E+00
   1.488000      0.0000000E+00
   1.494000      0.0000000E+00
   1.500000      0.0000000E+00
   1.506000      0.0000000E+00
   1.512000      0.0000000E+00
   1.518000      0.0000000E+00
   1.524000      0.0000000E+00
   1.530000      0.0000000E+00
   1.536000      0.0000000E+00
   1.542000      0.0000000E+00
   1.548000      0.0000000E+00
   1.554000      0.0000000E+00
   1.560000      0.0000000E+00
   1.566000      0.0000000E+00
   1.572000      0.0000000E+00
   1.578000      0.0000000E+00
   1.584000      0.0000000E+00
   1.590000      0.0000000E+00
   1.596000      0.0000000E+00
   1.602000      0.0000000E+00
   1.608000      0.0000000E+00
   1.614000      0.0000000E+00
   1.620000      0.0000000E+00
   1.626000      0.0000000E+00
   1.632000      0.0000000E+00
   1.638000      0.0000000E+00
   1.644000      0.0000000E+00
   1.650000      0.0000000E+00
   1.656000      0.0000000E+00
   1.662000      0.0000000E+00
   1.668000      0.0000000E+00
   1.674000      0.0000000E+00
   1.680000      0.0000000E+00
   1.686000      0.0000000E+00
   1.692000      0.0000000E+00
   1.698000      0.0000000E+00
   1.704000      0.0000000E+00
   1.710000      0.0000000E+00
   1.716000      0.0000000E+00
   1.722000      0.0000000E+00
   1.728000      0.0000000E+00
   1.734000      0.0000000E+00
   1.740000      0.0000000E+00
   1.746000      0.0000000E+00
   1.752000      0.0000000E+00
   1.758000      0.0000000E+00
   1.764000      0.0000000E+00
   1.770000      0.0000000E+00
   1.776000      0.0000000E+00
   1.782000      0.0000000E+00
   1.788000      0.0000000E+00
   1.794000      0.0000000E+00
   1.800000      0.0000000E+00
   1.806000      0.0000000E+00
   1.812000      0.0000000E+00
   1.818000      0.0000000E+00
   1.824000      0.0000000E+00
   1.830000      0.0000000E+00
   1.836000      0.0000000E+00
   1.842000      0.0000000E+00
   1.848000      0.0000000E+00
   1.854000      0.0000000E+00
   1.860000      0.0000000E+00
   1.866000      0.0000000E+00
   1.872000      0.0000000E+00
   1.878000      0.0000000E+00
   1.884000      0.0000000E+00
   1.890000      0.0000000E+00
   1.896000      0.0000000E+00
   1.902000      0.0000000E+00
   1.908000      0.0000000E+00
   1.914000      0.0000000E+00
   1.920000      0.0000000E+00
   1.926000      0.0000000E+00
   1.932000      0.0000000E+00
   1.938000      0.0000000E+00
   1.944000      0.0000000E+00
   1.950000      0.0000000E+00
   1.956000      0.0000000E+00
   1.962000      0.0000000E+00
   1.968000      0.0000000E+00
   1.974000      0.0000000E+00
   1.980000      0.0000000E+00
   1.986000      0.0000000E+00
   1.992000      0.0000000E+00
   1.998000      0.0000000E+00
   2.004000      0.0000000E+00
   2.010000      0.0000000E+00
   2.016000      0.0000000E+00
   2.022000      0.0000000E+00
   2.028000      0.0000000E+00
   2.034000      0.0000000E+00
   2.040000      0.0000000E+00
   2.046000      0.0000000E+00
   2.052000      0.0000000E+00
   2.058000      0.0000000E+00
   2.064000      0.0000000E+00
   2.070000      0.0000000E+00
   2.076000      0.0000000E+00
   2.082000      0.0000000E+00
   2.088000      0.0000000E+00
   2.094000      0.0000000E+00
   2.100000      0.0000000E+00
   2.106000      0.0000000E+00
   2.112000      0.0000000E+00
   2.118000      0.0000000E+00
   2.124000      0.0000000E+00
   2.130000      0.0000000E+00
   2.136000      0.0000000E+00
   2.142000      0.0000000E+00
   2.148000      0.0000000E+00
   2.154000      0.0000000E+00
   2.160000      0.0000000E+00
   2.166000      0.0000000E+00
   2.172000      0.0000000E+00
   2.178000      0.0000000E+00
   2.184000      0.0000000E+00
   2.190000      0.0000000E+00
   2.196000      0.0000000E+00
   2.202000      0.0000000E+00
   2.208000      0.0000000E+00
   2.214000      0.0000000E+00
   2.220000      0.0000000E+00
   2.226000      0.0000000E+00
   2.232000      0.0000000E+00
   2.238000      0.0000000E+00
   2.244000      0.0000000E+00
   2.250000      0.0000000E+00
   2.256000      0.0000000E+00
   2.262000      0.0000000E+00
   2.268000      0.0000000E+00
   2.274000      0.0000000E+00
   2.280000      0.0000000E+00
   2.286000      0.0000000E+00
   2.292000      0.0000000E+00
   2.298000      0.0000000E+00
   2.304000      0.0000000E+00
   2.310000      0.0000000E+00
   2.316000      0.0000000E+00
   2.322000      0.0000000E+00
   2.328000      0.0000000E+00
   2.334000      0.0000000E+00
   2.340000      0.0000000E+00
   2.346000      0.0000000E+00
   2.352000      0.0000000E+00
   2.358000      0.0000000E+00
   2.364000      0.0000000E+00
   2.370000      0.0000000E+00
   2.376000      0.0000000E+00
   2.382000      0.0000000E+00
   2.388000      0.0000000E+00
   2.394000      0.0000000E+00
   2.400000      0.0000000E+00
   2.406000      0.0000000E+00
   2.412000      0.0000000E+00
   2.418000      0.0000000E+00
   2.424000      0.0000000E+00
   2.430000      0.0000000E+00
   2.436000      0.0000000E+00
   2.442000      0.0000000E+00
   2.448000      0.0000000E+00
   2.454000      0.0000000E+00
   2.460000      0.0000000E+00
   2.466000      0.0000000E+00
   2.472000      0.0000000E+00
   2.478000      0.0000000E+00
   2.484000      0.0000000E+00
   2.490000      0.0000000E+00
   2.496000      0.0000000E+00
   2.502000      0.0000000E+00
   2.508000      0.0000000E+00
   2.514000      0.0000000E+00
   2.520000      0.0000000E+00
   2.526000      0.0000000E+00
   2.532000      0.0000000E+00
   2.538000      0.0000000E+00
   2.544000      0.0000000E+00
   2.550000      0.0000000E+00
   2.556000      0.0000000E+00
   2.562000      0.0000000E+00
   2.568000      0.0000000E+00
   2.574000      0.0000000E+00
   2.580000      0.0000000E+00
   2.586000      0.0000000E+00
   2.592000      0.0000000E+00
   2.598000      0.0000000E+00
   2.604000      0.0000000E+00
   2.610000      0.0000000E+00
   2.616000      0.0000000E+00
   2.622000      0.0000000E+00
   2.628000      0.0000000E+00
   2.634000      0.0000000E+00
   2.640000      0.0000000E+00
   2.646000      0.0000000E+00
   2.652000      0.0000000E+00
   2.658000      0.0000000E+00
   2.664000      0.0000000E+00
   2.670000      0.0000000E+00
   2.676000      0.0000000E+00
   2.682000      0.0000000E+00
   2.688000      0.0000000E+00
   2.694000      0.0000000E+00
   2.700000      0.0000000E+00
   2.706000      0.0000000E+00
   2.712000      0.0000000E+00
   2.718000      0.0000000E+00
   2.724000      0.0000000E+00
   2.730000      0.0000000E+00
   2.736000      0.0000000E+00
   2.742000      0.0000000E+00
   2.748000      0.0000000E+00
   2.754000      0.0000000E+00
   2.760000      0.0000000E+00
   2.766000      0.0000000E+00
   2.772000      0.0000000E+00
   2.778000      0.0000000E+00
   2.784000      0.0000000E+00
   2.790000      0.0000000E+00
   2.796000      0.0000000E+00
   2.802000      0.0000000E+00
   2.808000      0.0000000E+00
   2.814000      0.0000000E+00
   2.820000      0.0000000E+00
   2.826000      0.0000000E+00
   2.832000      0.0000000E+00
   2.838000      0.0000000E+00
   2.844000      0.0000000E+00
   2.850000      0.0000000E+00
   2.856000      0.0000000E+00
   2.862000      0.0000000E+00
   2.868000      0.0000000E+00
   2.874000      0.0000000E+00
   2.880000      0.0000000E+00
   2.886000      0.0000000E+00
   2.892000      0.0000000E+00
   2.898000      0.0000000E+00
   2.904000      0.0000000E+00
   2.910000      0.0000000E+00
   2.916000      0.0000000E+00
   2.922000      0.0000000E+00
   2.928000      0.0000000E+00
   2.934000      0.0000000E+00
   2.940000      0.0000000E+00
   2.946000      0.0000000E+00
   2.952000      0.0000000E+00
   2.958000      0.0000000E+00
   2.964000      0.0000000E+00
   2.970000      0.0000000E+00
   2.976000      0.0000000E+00
   2.982000      0.0000000E+00
   2.988000      0.0000000E+00
   2.994000      0.0000000E+00
   3.000000      0.0000000E+00
   3.006000      0.0000000E+00
   3.012000      0.0000000E+00
   3.018000      0.0000000E+00
   3.024000      0.0000000E+00
   3.030000      0.0000000E+00
   3.036000      0.0000000E+00
   3.042000      0.0000000E+00
   3.048000      0.0000000E+00
   3.054000      0.0000000E+00
   3.060000      0.0000000E+00
   3.066000      0.0000000E+00
   3.072000      0.0000000E+00
   3.078000      0.0000000E+00
   3.084000      0.0000000E+00
   3.090000      0.0000000E+00
   3.096000      0.0000000E+00
   3.102000      0.0000000E+00
   3.108000      0.0000000E+00
   3.114000      0.0000000E+00
   3.120000      0.0000000E+00
   3.126000      0.0000000E+00
   3.132000      0.0000000E+00
   3.138000      0.0000000E+00
   3.144000      0.0000000E+00
   3.150000      0.0000000E+00
   3.156000      0.0000000E+00
   3.162000      0.0000000E+00
   3.168000      0.0000000E+00
   3.174000      0.0000000E+00
   3.180000      0.0000000E+00
   3.186000      0.0000000E+00
   3.192000      0.0000000E+00
   3.198000      0.0000000E+00
   3.204000      0.0000000E+00
   3.210000      0.0000000E+00
   3.216000      0.0000000E+00
   3.222000      0.0000000E+00
   3.228000      0.0000000E+00
   3.234000      0.0000000E+00
   3.240000      0.0000000E+00
   3.246000      0.0000000E+00
   3.252000      0.0000000E+00
   3.258000      0.0000000E+00
   3.264000      0.0000000E+00
   3.270000      0.0000000E+00
   3.276000      0.0000000E+00
   3.282000      0.0000000E+00
   3.288000      0.0000000E+00
   3.294000      0.0000000E+00
   3.300000      0.0000000E+00
   3.306000      0.0000000E+00
   3.312000      0.0000000E+00
   3.318000      0.0000000E+00
   3.324000      0.0000000E+00
   3.330000      0.0000000E+00
   3.336000      0.0000000E+00
   3.342000      0.0000000E+00
   3.348000      0.0000000E+00
   3.354000      0.0000000E+00
   3.360000      0.0000000E+00
   3.366000      0.0000000E+00
   3.372000      0.0000000E+00
   3.378000      0.0000000E+00
   3.384000      0.0000000E+00
   3.390000      0.0000000E+00
   3.396000      0.0000000E+00
   3.402000      0.0000000E+00
   3.408000      0.0000000E+00
   3.414000      0.0000000E+00
   3.420000      0.0000000E+00
   3.426000      0.0000000E+00
   3.432000      0.0000000E+00
   3.438000      0.0000000E+00
   3.444000      0.0000000E+00
   3.450000      0.0000000E+00
   3.456000      0.0000000E+00
   3.462000      0.0000000E+00
   3.468000      0.0000000E+00
   3.474000      0.0000000E+00
   3.480000      0.0000000E+00
   3.486000      0.0000000E+00
   3.492000      0.0000000E+00
   3.498000      0.0000000E+00
   3.504000      0.0000000E+00
   3.510000      0.0000000E+00
   3.516000      0.0000000E+00
   3.522000      0.0000000E+00
   3.528000      0.0000000E+00
   3.534000      0.0000000E+00
   3.540000      0.0000000E+00
   3.546000      0.0000000E+00
   3.552000      0.0000000E+00
   3.558000      0.0000000E+00
   3.564000      0.0000000E+00
   3.570000      0.0000000E+00
   3.576000      0.0000000E+00
   3.582000      0.0000000E+00
   3.588000      0.0000000E+00
   3.594000      0.0000000E+00
   3.600000      0.0000000E+00
   3.606000      0.0000000E+00
   3.612000      0.0000000E+00
   3.618000      0.0000000E+00
   3.624000      0.0000000E+00
   3.630000      0.0000000E+00
   3.636000      0.0000000E+00
   3.642000      0.0000000E+00
   3.648000      0.0000000E+00
   3.654000      0.0000000E+00
   3.660000      0.0000000E+00
   3.666000      0.0000000E+00
   3.672000      0.0000000E+00
   3.678000      0.0000000E+00
   3.684000      0.0000000E+00
   3.690000      0.0000000E+00
   3.696000      0.0000000E+00
   3.702000      0.0000000E+00
   3.708000      0.0000000E+00
   3.714000      0.0000000E+00
   3.720000      0.0000000E+00
   3.726000      0.0000000E+00
   3.732000      0.0000000E+00
   3.738000      0.0000000E+00
   3.744000      0.0000000E+00
   3.750000      0.0000000E+00
   3.756000      0.0000000E+00
   3.762000      0.0000000E+00
   3.768000      0.0000000E+00
   3.774000      0.0000000E+00
   3.780000      0.0000000E+00
   3.786000      0.0000000E+00
   3.792000      0.0000000E+00
   3.798000      0.0000000E+00
   3.804000      0.0000000E+00
   3.810000      0.0000000E+00
   3.816000      0.0000000E+00
   3.822000      0.0000000E+00
   3.828000      0.0000000E+00
   3.834000      0.0000000E+00
   3.840000      0.0000000E+00
   3.846000      0.0000000E+00
   3.852000      0.0000000E+00
   3.858000      0.0000000E+00
   3.864000      0.0000000E+00
   3.870000      0.0000000E+00
   3.876000      0.0000000E+00
   3.882000      0.0000000E+00
   3.888000      0.0000000E+00
   3.894000      0.0000000E+00
   3.900000      0.0000000E+00
   3.906000      0.0000000E+00
   3.912000      0.0000000E+00
   3.918000      0.0000000E+00
   3.924000      0.0000000E+00
   3.930000      0.0000000E+00
   3.936000      0.0000000E+00
   3.942000      0.0000000E+00
   3.948000      0.0000000E+00
   3.954000      0.0000000E+00
   3.960000      0.0000000E+00
   3.966000      0.0000000E+00
   3.972000      0.0000000E+00
   3.978000      0.0000000E+00
   3.984000      0.0000000E+00
   3.990000      0.0000000E+00
   3.996000      0.0000000E+00
   4.002000      0.0000000E+00
   4.008000      0.0000000E+00
   4.014000      0.0000000E+00
   4.020000      0.0000000E+00
   4.026000      0.0000000E+00
   4.032000      0.0000000E+00
   4.038000      0.0000000E+00
   4.044000      0.0000000E+00
   4.050000      0.0000000E+00
   4.056000      0.0000000E+00
   4.062000      0.0000000E+00
   4.068000     -1.3360180E-38
   4.074000     -3.4929203E-38
   4.080000     -5.8255665E-38
   4.086000     -8.0578428E-38
   4.092000     -1.0252642E-37
   4.098000     -9.7522840E-38
   4.104000     -6.4061744E-38
   4.110000      0.0000000E+00
   4.116000      4.5422888E-38
   4.122000      9.7892771E-38
   4.128000      1.3663176E-37
   4.134000      1.4507133E-37
   4.140000      1.0738658E-37
   4.146000      3.1747829E-38
   4.152000     -7.1238499E-38
   4.158000     -1.5845272E-37
   4.164000     -2.3899051E-37
   4.170000     -3.1227905E-37
   4.176000     -3.8160729E-37
   4.182000     -4.4750285E-37
   4.188000     -4.6685875E-37
   4.194000     -4.2269408E-37
   4.200000     -3.1594478E-37
   4.206000     -1.7253833E-37
   4.212000      0.0000000E+00
   4.218000      1.5953332E-37
   4.224000      3.0117148E-37
   4.230000      3.9303229E-37
   4.236000      4.0322249E-37
   4.242000      3.2973051E-37
   4.248000      1.8055413E-37
   4.254000      0.0000000E+00
   4.260000     -1.9667489E-37
   4.266000     -3.7710785E-37
   4.272000     -5.0771048E-37
   4.278000     -5.7593013E-37
   4.284000     -5.6612592E-37
   4.290000     -4.7770785E-37
   4.296000     -3.3037927E-37
   4.302000     -1.4092269E-37
   4.308000      5.9184939E-38
   4.314000      2.4349581E-37
   4.320000      3.9412248E-37
   4.326000      4.9191867E-37
   4.332000      5.0851525E-37
   4.338000      4.5091919E-37
   4.344000      3.0287979E-37
   4.350000      6.8684717E-38
   4.356000     -2.0599287E-37
   4.362000     -5.1939466E-37
   4.368000     -8.1652401E-37
   4.374000     -1.0491514E-36
   4.380000     -1.1928938E-36
   4.386000     -1.1978234E-36
   4.392000     -1.0698544E-36
   4.398000     -8.0845702E-37
   4.404000     -4.2009533E-37
   4.410000      2.6986988E-38
   4.416000      4.7694361E-37
   4.422000      8.6787871E-37
   4.428000      1.1763982E-36
   4.434000      1.4236130E-36
   4.440000      1.5238924E-36
   4.446000      1.5084988E-36
   4.452000      1.3875608E-36
   4.458000      1.2359265E-36
   4.464000      1.0688584E-36
   4.470000      8.9251269E-37
   4.476000      7.1835855E-37
   4.482000      5.6142788E-37
   4.488000      4.0998101E-37
   4.494000      1.9830187E-37
   4.500000     -1.3072058E-37
   4.506000     -6.0293918E-37
   4.512000     -1.2216986E-36
   4.518000     -2.0108544E-36
   4.524000     -2.9461320E-36
   4.530000     -3.9203479E-36
   4.536000     -4.8213004E-36
   4.542000     -5.5229297E-36
   4.548000     -5.8598792E-36
   4.554000     -5.6686145E-36
   4.560000     -4.8397974E-36
   4.566000     -3.3626403E-36
   4.572000     -1.3305564E-36
   4.578000      1.1640249E-36
   4.584000      3.9261454E-36
   4.590000      6.6461578E-36
   4.596000      9.0294697E-36
   4.602000      1.0797179E-35
   4.608000      1.1632012E-35
   4.614000      1.1302342E-35
   4.620000      9.7354243E-36
   4.626000      6.9533791E-36
   4.632000      3.1377735E-36
   4.638000     -1.4321295E-36
   4.644000     -6.4383083E-36
   4.650000     -1.1423587E-35
   4.656000     -1.5970016E-35
   4.662000     -1.9626916E-35
   4.668000     -2.1996411E-35
   4.674000     -2.2763728E-35
   4.680000     -2.1730197E-35
   4.686000     -1.8810488E-35
   4.692000     -1.4003853E-35
   4.698000     -7.4709582E-36
   4.704000      5.2236878E-37
   4.710000      9.5398233E-36
   4.716000      1.9117920E-35
   4.722000      2.8613429E-35
   4.728000      3.7308245E-35
   4.734000      4.4445992E-35
   4.740000      4.9239788E-35
   4.746000      5.0928660E-35
   4.752000      4.8865650E-35
   4.758000      4.2609690E-35
   4.764000      3.2002329E-35
   4.770000      1.7195370E-35
   4.776000     -1.2359049E-36
   4.782000     -2.2295912E-35
   4.788000     -4.4574568E-35
   4.794000     -6.6323532E-35
   4.800000     -8.5515125E-35
   4.806000     -1.0012704E-34
   4.812000     -1.0825075E-34
   4.818000     -1.0835687E-34
   4.824000     -9.9463031E-35
   4.830000     -8.1346316E-35
   4.836000     -5.4597666E-35
   4.842000     -2.0724978E-35
   4.848000      1.7948985E-35
   4.854000      5.8419228E-35
   4.860000      9.7220167E-35
   4.866000      1.3074873E-34
   4.872000      1.5556438E-34
   4.878000      1.6879920E-34
   4.884000      1.6844592E-34
   4.890000      1.5365209E-34
   4.896000      1.2490167E-34
   4.902000      8.4084494E-35
   4.908000      3.4428809E-35
   4.914000     -1.9706082E-35
   4.920000     -7.3166184E-35
   4.926000     -1.2045070E-34
   4.932000     -1.5626590E-34
   4.938000     -1.7607435E-34
   4.944000     -1.7665280E-34
   4.950000     -1.5658402E-34
   4.956000     -1.1662232E-34
   4.962000     -5.9880187E-35
   4.968000      8.2137725E-36
   4.974000      8.0196351E-35
   4.980000      1.4710981E-34
   4.986000      1.9927639E-34
   4.992000      2.2725148E-34
   4.998000      2.2291806E-34
   5.004000      1.8063778E-34
   5.010000      9.8195357E-35
   5.016000     -2.2324380E-35
   5.022000     -1.7403188E-34
   5.028000     -3.4514128E-34
   5.034000     -5.1936936E-34
   5.040000     -6.7686843E-34
   5.046000     -7.9567560E-34
   5.052000     -8.5361103E-34
   5.058000     -8.3050191E-34
   5.064000     -7.1056388E-34
   5.070000     -4.8472988E-34
   5.076000     -1.5270220E-34
   5.082000      2.7550383E-34
   5.088000      7.7874049E-34
   5.094000      1.3248091E-33
   5.100000      1.8715635E-33
   5.106000      2.3690796E-33
   5.112000      2.7628452E-33
   5.118000      2.9978243E-33
   5.124000      3.0231696E-33
   5.130000      2.7972394E-33
   5.136000      2.2925582E-33
   5.142000      1.5002850E-33
   5.148000      4.3376697E-34
   5.154000     -8.6922141E-34
   5.160000     -2.3458944E-33
   5.166000     -3.9097758E-33
   5.172000     -5.4540480E-33
   5.178000     -6.8569245E-33
   5.184000     -7.9888521E-33
   5.190000     -8.7212211E-33
   5.196000     -8.9360772E-33
   5.202000     -8.5362034E-33
   5.208000     -7.4548676E-33
   5.214000     -5.6644931E-33
   5.220000     -3.1835168E-33
   5.226000     -8.0817039E-35
   5.232000      3.5227946E-33
   5.238000      7.4563561E-33
   5.244000      1.1503960E-32
   5.250000      1.5413321E-32
   5.256000      1.8907458E-32
   5.262000      2.1699050E-32
   5.268000      2.3506859E-32
   5.274000      2.4073440E-32
   5.280000      2.3183323E-32
   5.286000      2.0680704E-32
   5.292000      1.6485709E-32
   5.298000      1.0608314E-32
   5.304000      3.1590191E-33
   5.310000     -5.6444781E-33
   5.316000     -1.5475324E-32
   5.322000     -2.5900813E-32
   5.328000     -3.6391398E-32
   5.334000     -4.6335701E-32
   5.340000     -5.5061619E-32
   5.346000     -6.1863476E-32
   5.352000     -6.6034912E-32
   5.358000     -6.6906881E-32
   5.364000     -6.3889952E-32
   5.370000     -5.6519520E-32
   5.376000     -4.4502350E-32
   5.382000     -2.7762338E-32
   5.388000     -6.4830688E-33
   5.394000      1.8855780E-32
   5.400000      4.7451413E-32
   5.406000      7.8163827E-32
   5.412000      1.0951838E-31
   5.418000      1.3972865E-31
   5.424000      1.6674305E-31
   5.430000      1.8831765E-31
   5.436000      2.0211666E-31
   5.442000      2.0584053E-31
   5.448000      1.9737918E-31
   5.454000      1.7498571E-31
   5.460000      1.3746325E-31
   5.466000      8.4354403E-32
   5.472000      1.6120956E-32
   5.478000     -6.5701747E-32
   5.484000     -1.5839189E-31
   5.490000     -2.5798699E-31
   5.496000     -3.5930482E-31
   5.502000     -4.5605372E-31
   5.508000     -5.4104248E-31
   5.514000     -6.0649593E-31
   5.520000     -6.4447352E-31
   5.526000     -6.4738156E-31
   5.532000     -6.0856076E-31
   5.538000     -5.2292059E-31
   5.544000     -3.8758327E-31
   5.550000     -2.0249395E-31
   5.556000      2.9053971E-32
   5.562000      3.0003085E-31
   5.568000      5.9947301E-31
   5.574000      9.1252357E-31
   5.580000      1.2207513E-30
   5.586000      1.5027762E-30
   5.592000      1.7352108E-30
   5.598000      1.8939070E-30
   5.604000      1.9554753E-30
   5.610000      1.8990160E-30
   5.616000      1.7079794E-30
   5.622000      1.3720434E-30
   5.628000      8.8888372E-31
   5.634000      2.6568975E-31
   5.640000     -4.7971830E-31
   5.646000     -1.3183199E-30
   5.652000     -2.2100031E-30
   5.658000     -3.1044537E-30
   5.664000     -3.9428954E-30
   5.670000     -4.6606933E-30
   5.676000     -5.1907811E-30
   5.682000     -5.4678046E-30
   5.688000     -5.4328061E-30
   5.694000     -5.0382128E-30
   5.700000     -4.2528287E-30
   5.706000     -3.0664929E-30
   5.712000     -1.4940286E-30
   5.718000      4.2188883E-31
   5.724000      2.6093041E-30
   5.730000      4.9673077E-30
   5.736000      7.3683544E-30