 -5.9999999E-02  0.0000000E+00
 -5.4000001E-02  0.0000000E+00
 -4.8000000E-02  0.0000000E+00
 -4.1999999E-02  0.0000000E+00
 -3.5999998E-02  0.0000000E+00
 -2.9999999E-02  0.0000000E+00
 -2.4000000E-02  0.0000000E+00
 -1.7999999E-02  0.0000000E+00
 -1.2000000E-02  0.0000000E+00
 -6.0000001E-03  0.0000000E+00
  3.4694470E-18  0.0000000E+00
  6.0000001E-03  0.0000000E+00
  1.2000000E-02  0.0000000E+00
  1.7999999E-02  0.0000000E+00
  2.4000000E-02  0.0000000E+00
  2.9999999E-02  0.0000000E+00
  3.5999998E-02  0.0000000E+00
  4.1999999E-02  0.0000000E+00
  4.8000000E-02  0.0000000E+00
  5.4000001E-02  0.0000000E+00
  5.9999999E-02  0.0000000E+00
  6.6000000E-02  0.0000000E+00
  7.1999997E-02  0.0000000E+00
  7.8000002E-02  0.0000000E+00
  8.3999999E-02  0.0000000E+00
  9.0000004E-02  0.0000000E+00
  9.6000001E-02  0.0000000E+00
  0.1020000      0.0000000E+00
  0.1080000      0.0000000E+00
  0.1140000      0.0000000E+00
  0.1200000      0.0000000E+00
  0.1260000      0.0000000E+00
  0.1320000      0.0000000E+00
  0.1380000      0.0000000E+00
  0.1440000      0.0000000E+00
  0.1500000      0.0000000E+00
  0.1560000      0.0000000E+00
  0.1620000      0.0000000E+00
  0.1680000      0.0000000E+00
  0.1740000      0.0000000E+00
  0.1800000      0.0000000E+00
  0.1860000      0.0000000E+00
  0.1920000      0.0000000E+00
  0.1980000      0.0000000E+00
  0.2040000      0.0000000E+00
  0.2100000      0.0000000E+00
  0.2160000      0.0000000E+00
  0.2220000      0.0000000E+00
  0.2280000      0.0000000E+00
  0.2340000      0.0000000E+00
  0.2400000      0.0000000E+00
  0.2460000      0.0000000E+00
  0.2520000      0.0000000E+00
  0.2580000      0.0000000E+00
  0.2640000      0.0000000E+00
  0.2700000      0.0000000E+00
  0.2760000      0.0000000E+00
  0.2820000      0.0000000E+00
  0.2880000      0.0000000E+00
  0.2940000      0.0000000E+00
  0.3000000      0.0000000E+00
  0.3060000      0.0000000E+00
  0.3120000      0.0000000E+00
  0.3180000      0.0000000E+00
  0.3240000      0.0000000E+00
  0.3300000      0.0000000E+00
  0.3360000      0.0000000E+00
  0.3420000      0.0000000E+00
  0.3480000      0.0000000E+00
  0.3540000      0.0000000E+00
  0.3600000      0.0000000E+00
  0.3660000      0.0000000E+00
  0.3720000      0.0000000E+00
  0.3780000      0.0000000E+00
  0.3840000      0.0000000E+00
  0.3900000      0.0000000E+00
  0.3960000      0.0000000E+00
  0.4020000      0.0000000E+00
  0.4080000      0.0000000E+00
  0.4140000      0.0000000E+00
  0.4200000      0.0000000E+00
  0.4260000      0.0000000E+00
  0.4320000      0.0000000E+00
  0.4380000      0.0000000E+00
  0.4440000      0.0000000E+00
  0.4500000      0.0000000E+00
  0.4560000      0.0000000E+00
  0.4620000      0.0000000E+00
  0.4680000      0.0000000E+00
  0.4740000      0.0000000E+00
  0.4800000      0.0000000E+00
  0.4860000      0.0000000E+00
  0.4920000      0.0000000E+00
  0.4980000      0.0000000E+00
  0.5040000      0.0000000E+00
  0.5100000      0.0000000E+00
  0.5160000      0.0000000E+00
  0.5220000      0.0000000E+00
  0.5280000      0.0000000E+00
  0.5340000      0.0000000E+00
  0.5400000      0.0000000E+00
  0.5460000      0.0000000E+00
  0.5520000      0.0000000E+00
  0.5580000      0.0000000E+00
  0.5640000      0.0000000E+00
  0.5700000      0.0000000E+00
  0.5760000      0.0000000E+00
  0.5820000      0.0000000E+00
  0.5880000      0.0000000E+00
  0.5940000      0.0000000E+00
  0.6000000      0.0000000E+00
  0.6060000      0.0000000E+00
  0.6120000      0.0000000E+00
  0.6180000      0.0000000E+00
  0.6240000      0.0000000E+00
  0.6300000      0.0000000E+00
  0.6360000      0.0000000E+00
  0.6420000      0.0000000E+00
  0.6480000      0.0000000E+00
  0.6540000      0.0000000E+00
  0.6600000      0.0000000E+00
  0.6660000      0.0000000E+00
  0.6720000      0.0000000E+00
  0.6780000      0.0000000E+00
  0.6840000      0.0000000E+00
  0.6900000      0.0000000E+00
  0.6960000      0.0000000E+00
  0.7020000      0.0000000E+00
  0.7080000      0.0000000E+00
  0.7140000      0.0000000E+00
  0.7200000      0.0000000E+00
  0.7260000      0.0000000E+00
  0.7320000      0.0000000E+00
  0.7380000      0.0000000E+00
  0.7440000      0.0000000E+00
  0.7500000      0.0000000E+00
  0.7560000      0.0000000E+00
  0.7620000      0.0000000E+00
  0.7680000      0.0000000E+00
  0.7740000      0.0000000E+00
  0.7800000      0.0000000E+00
  0.7860000      0.0000000E+00
  0.7920000      0.0000000E+00
  0.7980000      0.0000000E+00
  0.8040000      0.0000000E+00
  0.8100000      0.0000000E+00
  0.8160000      0.0000000E+00
  0.8220000      0.0000000E+00
  0.8280000      0.0000000E+00
  0.8340000      0.0000000E+00
  0.8400000      0.0000000E+00
  0.8460000      0.0000000E+00
  0.8520000      0.0000000E+00
  0.8580000      0.0000000E+00
  0.8640000      0.0000000E+00
  0.8700000      0.0000000E+00
  0.8760000      0.0000000E+00
  0.8820000      0.0000000E+00
  0.8880000      0.0000000E+00
  0.8940000      0.0000000E+00
  0.9000000      0.0000000E+00
  0.9060000      0.0000000E+00
  0.9120000      0.0000000E+00
  0.9180000      0.0000000E+00
  0.9240000      0.0000000E+00
  0.9300000      0.0000000E+00
  0.9360000      0.0000000E+00
  0.9420000      0.0000000E+00
  0.9480000      0.0000000E+00
  0.9540000      0.0000000E+00
  0.9600000      0.0000000E+00
  0.9660000      0.0000000E+00
  0.9720000      0.0000000E+00
  0.9780000      0.0000000E+00
  0.9840000      0.0000000E+00
  0.9900000      0.0000000E+00
  0.9960000      0.0000000E+00
   1.002000      0.0000000E+00
   1.008000      0.0000000E+00
   1.014000      0.0000000E+00
   1.020000      0.0000000E+00
   1.026000      0.0000000E+00
   1.032000      0.0000000E+00
   1.038000      0.0000000E+00
   1.044000      0.0000000E+00
   1.050000      0.0000000E+00
   1.056000      0.0000000E+00
   1.062000      0.0000000E+00
   1.068000      0.0000000E+00
   1.074000      0.0000000E+00
   1.080000      0.0000000E+00
   1.086000      0.0000000E+00
   1.092000      0.0000000E+00
   1.098000      0.0000000E+00
   1.104000      0.0000000E+00
   1.110000      0.0000000E+00
   1.116000      0.0000000E+00
   1.122000      0.0000000E+00
   1.128000      0.0000000E+00
   1.134000      0.0000000E+00
   1.140000      0.0000000E+00
   1.146000      0.0000000E+00
   1.152000      0.0000000E+00
   1.158000      0.0000000E+00
   1.164000      0.0000000E+00
   1.170000      0.0000000E+00
   1.176000      0.0000000E+00
   1.182000      0.0000000E+00
   1.188000      0.0000000E+00
   1.194000      0.0000000E+00
   1.200000      0.0000000E+00
   1.206000      0.0000000E+00
   1.212000      0.0000000E+00
   1.218000      0.0000000E+00
   1.224000      0.0000000E+00
   1.230000      0.0000000E+00
   1.236000      0.0000000E+00
   1.242000      0.0000000E+00
   1.248000      0.0000000E+00
   1.254000      0.0000000E+00
   1.260000      0.0000000E+00
   1.266000      0.0000000E+00
   1.272000      0.0000000E+00
   1.278000      0.0000000E+00
   1.284000      0.0000000E+00
   1.290000      0.0000000E+00
   1.296000      0.0000000E+00
   1.302000      0.0000000E+00
   1.308000      0.0000000E+00
   1.314000      0.0000000E+00
   1.320000      0.0000000E+00
   1.326000      0.0000000E+00
   1.332000      0.0000000E+00
   1.338000      0.0000000E+00
   1.344000      0.0000000E+00
   1.350000      0.0000000E+00
   1.356000      0.0000000E+00
   1.362000      0.0000000E+00
   1.368000      0.0000000E+00
   1.374000      0.0000000E+00
   1.380000      0.0000000E+00
   1.386000      0.0000000E+00
   1.392000      0.0000000E+00
   1.398000      0.0000000E+00
   1.404000      0.0000000E+00
   1.410000      0.0000000E+00
   1.416000      0.0000000E+00
   1.422000      0.0000000E+00
   1.428000      0.0000000E+00
   1.434000      0.0000000E+00
   1.440000      0.0000000E+00
   1.446000      0.0000000E+00
   1.452000      0.0000000E+00
   1.458000      0.0000000E+00
   1.464000      0.0000000E+00
   1.470000      0.0000000E+00
   1.476000      0.0000000E+00
   1.482000      0.0000000E+00
   1.488000      0.0000000E+00
   1.494000      0.0000000E+00
   1.500000      0.0000000E+00
   1.506000      0.0000000E+00
   1.512000      0.0000000E+00
   1.518000      0.0000000E+00
   1.524000      0.0000000E+00
   1.530000      0.0000000E+00
   1.536000      0.0000000E+00
   1.542000      0.0000000E+00
   1.548000      0.0000000E+00
   1.554000      0.0000000E+00
   1.560000      0.0000000E+00
   1.566000      0.0000000E+00
   1.572000      0.0000000E+00
   1.578000      0.0000000E+00
   1.584000      0.0000000E+00
   1.590000      0.0000000E+00
   1.596000      0.0000000E+00
   1.602000      0.0000000E+00
   1.608000      0.0000000E+00
   1.614000      0.0000000E+00
   1.620000      0.0000000E+00
   1.626000      0.0000000E+00
   1.632000      0.0000000E+00
   1.638000      0.0000000E+00
   1.644000      0.0000000E+00
   1.650000      0.0000000E+00
   1.656000      0.0000000E+00
   1.662000      0.0000000E+00
   1.668000      0.0000000E+00
   1.674000      0.0000000E+00
   1.680000      0.0000000E+00
   1.686000      0.0000000E+00
   1.692000      0.0000000E+00
   1.698000      0.0000000E+00
   1.704000      0.0000000E+00
   1.710000      0.0000000E+00
   1.716000      0.0000000E+00
   1.722000      0.0000000E+00
   1.728000      0.0000000E+00
   1.734000      0.0000000E+00
   1.740000      0.0000000E+00
   1.746000      0.0000000E+00
   1.752000      0.0000000E+00
   1.758000      0.0000000E+00
   1.764000      0.0000000E+00
   1.770000      0.0000000E+00
   1.776000      0.0000000E+00
   1.782000      0.0000000E+00
   1.788000      0.0000000E+00
   1.794000      0.0000000E+00
   1.800000      0.0000000E+00
   1.806000      0.0000000E+00
   1.812000      0.0000000E+00
   1.818000      0.0000000E+00
   1.824000      0.0000000E+00
   1.830000      0.0000000E+00
   1.836000      1.8579005E-38
   1.842000      4.0198480E-38
   1.848000      5.5562762E-38
   1.854000      6.2555068E-38
   1.860000      6.1929702E-38
   1.866000      5.4334468E-38
   1.872000      3.9889146E-38
   1.878000      1.9364475E-38
   1.884000      0.0000000E+00
   1.890000     -4.5889038E-38
   1.896000     -8.8364889E-38
   1.902000     -1.2543274E-37
   1.908000     -1.4772445E-37
   1.914000     -1.5267455E-37
   1.920000     -1.3932435E-37
   1.926000     -1.0363747E-37
   1.932000     -5.2731624E-38
   1.938000      2.0062623E-38
   1.944000      1.0700065E-37
   1.950000      2.0040940E-37
   1.956000      2.7831534E-37
   1.962000      3.2783635E-37
   1.968000      3.3529310E-37
   1.974000      3.1284849E-37
   1.980000      2.5767917E-37
   1.986000      1.4217006E-37
   1.992000     -4.1713486E-38
   1.998000     -3.3198447E-37
   2.004000     -7.6076382E-37
   2.010000     -1.3436461E-36
   2.016000     -2.1182944E-36
   2.022000     -3.0452450E-36
   2.028000     -4.0504175E-36
   2.034000     -5.0278923E-36
   2.040000     -5.6333117E-36
   2.046000     -5.6070356E-36
   2.052000     -4.6439528E-36
   2.058000     -2.7360628E-36
   2.064000      1.3133760E-37
   2.070000      4.0039089E-36
   2.076000      8.7297065E-36
   2.082000      1.4006350E-35
   2.088000      1.9367749E-35
   2.094000      2.4209745E-35
   2.100000      2.7677720E-35
   2.106000      2.8871034E-35
   2.112000      2.6782413E-35
   2.118000      2.0500804E-35
   2.124000      9.3706027E-36
   2.130000     -6.7935280E-36
   2.136000     -2.7589754E-35
   2.142000     -5.1774390E-35
   2.148000     -7.7330361E-35
   2.154000     -1.0135621E-34
   2.160000     -1.2026933E-34
   2.166000     -1.3000031E-34
   2.172000     -1.2643407E-34
   2.178000     -1.0589015E-34
   2.184000     -6.5717338E-35
   2.190000     -4.9306198E-36
   2.196000      7.5166826E-35
   2.202000      1.7046654E-34
   2.208000      2.7368342E-34
   2.214000      3.7436423E-34
   2.220000      4.5924700E-34
   2.226000      5.1310590E-34
   2.232000      5.2009091E-34
   2.238000      4.6555279E-34
   2.244000      3.3821064E-34
   2.250000      1.3255384E-34
   2.256000     -1.4886004E-34
   2.262000     -4.9343552E-34
   2.268000     -8.7728080E-34
   2.274000     -1.2649710E-33
   2.280000     -1.6106996E-33
   2.286000     -1.8609734E-33
   2.292000     -1.9590253E-33
   2.298000     -1.8508177E-33
   2.304000     -1.4923369E-33
   2.310000     -8.5768549E-34
   2.316000      5.2926145E-35
   2.322000      1.2061621E-33
   2.328000      2.5307038E-33
   2.334000      3.9156878E-33
   2.340000      5.2135033E-33
   2.346000      6.2477304E-33
   2.352000      6.8266026E-33
   2.358000      6.7618028E-33
   2.364000      5.8916978E-33
   2.370000      4.1073859E-33
   2.376000      1.3791571E-33
   2.382000     -2.2196713E-33
   2.388000     -6.4950405E-33
   2.394000     -1.1124197E-32
   2.400000     -1.5660904E-32
   2.406000     -1.9556482E-32
   2.412000     -2.2198159E-32
   2.418000     -2.2964497E-32
   2.424000     -2.1295610E-32
   2.430000     -1.6773530E-32
   2.436000     -9.2058223E-33
   2.442000      1.2965968E-33
   2.448000      1.4257941E-32
   2.454000      2.8803464E-32
   2.460000      4.3663388E-32
   2.466000      5.7223482E-32
   2.472000      6.7627589E-32
   2.478000      7.2932483E-32
   2.484000      7.1309549E-32
   2.490000      6.1281024E-32
   2.496000      4.1971640E-32
   2.502000      1.3350295E-32
   2.508000     -2.3568268E-32
   2.514000     -6.6594235E-32
   2.520000     -1.1233746E-31
   2.526000     -1.5631281E-31
   2.532000     -1.9319425E-31
   2.538000     -2.1722205E-31
   2.544000     -2.2275223E-31
   2.550000     -2.0491723E-31
   2.556000     -1.6034843E-31
   2.562000     -8.7892459E-32
   2.568000      1.0761121E-32
   2.574000      1.3063125E-31
   2.580000      2.6326590E-31
   2.586000      3.9691169E-31
   2.592000      5.1708953E-31
   2.598000      6.0760095E-31
   2.604000      6.5194624E-31
   2.610000      6.3508429E-31
   2.616000      5.4541236E-31
   2.622000      3.7679145E-31
   2.628000      1.3040281E-31
   2.634000     -1.8380814E-31
   2.640000     -5.4634622E-31
   2.646000     -9.2826664E-31
   2.652000     -1.2923361E-30
   2.658000     -1.5953482E-30
   2.664000     -1.7915800E-30
   2.670000     -1.8372458E-30
   2.676000     -1.6956658E-30
   2.682000     -1.3427299E-30
   2.688000     -7.7211651E-31
   2.694000      3.5024972E-34
   2.700000      9.3386039E-31
   2.706000      1.9619068E-30
   2.712000      2.9942145E-30
   2.718000      3.9216248E-30
   2.724000      4.6240028E-30
   2.730000      4.9809070E-30
   2.736000      4.8844273E-30
   2.742000      4.2532275E-30
   2.748000      3.0465191E-30
   2.754000      1.2764570E-30
   2.760000     -9.8269174E-31
   2.766000     -3.5902129E-30
   2.772000     -6.3408467E-30
   2.778000     -8.9739338E-30
   2.784000     -1.1190210E-29
   2.790000     -1.2675940E-29
   2.796000     -1.3133219E-29
   2.802000     -1.2314384E-29
   2.808000     -1.0057679E-29
   2.814000     -6.3206320E-30
   2.820000     -1.2071976E-30
   2.826000      5.0153894E-30
   2.832000      1.1913711E-29
   2.838000      1.8902133E-29
   2.844000      2.5275315E-29
   2.850000      3.0259245E-29
   2.856000      3.3078891E-29
   2.862000      3.3038416E-29
   2.868000      2.9607902E-29
   2.874000      2.2508664E-29
   2.880000      1.1788084E-29
   2.886000     -2.1257504E-30
   2.892000     -1.8398875E-29
   2.898000     -3.5803597E-29
   2.904000     -5.2773405E-29
   2.910000     -6.7502490E-29
   2.916000     -7.8087564E-29
   2.922000     -8.2704885E-29
   2.928000     -7.9810368E-29
   2.934000     -6.8346475E-29
   2.940000     -4.7935779E-29
   2.946000     -1.9039130E-29
   2.952000      1.6943751E-29
   2.958000      5.7651575E-29
   2.964000      9.9832294E-29
   2.970000      1.3951621E-28
   2.976000      1.7229148E-28
   2.982000      1.9367135E-28
   2.988000      1.9953165E-28
   2.994000      1.8658649E-28
   3.000000      1.5286034E-28
   3.006000      9.8108857E-29
   3.012000      2.4137417E-29
   3.018000     -6.5031462E-29
   3.024000     -1.6318366E-28
   3.030000     -2.6216146E-28
   3.036000     -3.5234590E-28
   3.042000     -4.2336413E-28
   3.048000     -4.6498815E-28
   3.054000     -4.6816733E-28
   3.060000     -4.2611388E-28
   3.066000     -3.3534285E-28
   3.072000     -1.9655714E-28
   3.078000     -1.5265077E-29
   3.084000      1.9797216E-28
   3.090000      4.2774707E-28
   3.096000      6.5451771E-28
   3.102000      8.5583656E-28
   3.108000      1.0080573E-27
   3.114000      1.0884305E-27
   3.120000      1.0774452E-27
   3.126000      9.6122798E-28
   3.132000      7.3377753E-28
   3.138000      3.9879317E-28
   3.144000     -2.9142086E-29
   3.150000     -5.2423702E-28
   3.156000     -1.0501890E-27
   3.162000     -1.5619922E-27
   3.168000     -2.0088539E-27
   3.174000     -2.3381109E-27
   3.180000     -2.4999212E-27
   3.186000     -2.4524089E-27
   3.192000     -2.1668397E-27
   3.198000     -1.6323452E-27
   3.204000     -8.5968505E-28
   3.210000      1.1644932E-28
   3.216000      1.2370222E-27
   3.222000      2.4204485E-27
   3.228000      3.5667552E-27
   3.234000      4.5640703E-27
   3.240000      5.2971729E-27
   3.246000      5.6576207E-27
   3.252000      5.5547460E-27
   3.258000      4.9266278E-27
   3.264000      3.7500391E-27
   3.270000      2.0483041E-27
   3.276000     -1.0394337E-28
   3.282000     -2.5799811E-27
   3.288000     -5.2048280E-27
   3.294000     -7.7639860E-27
   3.300000     -1.0017004E-26
   3.306000     -1.1715312E-26
   3.312000     -1.2623330E-26
   3.318000     -1.2541408E-26
   3.324000     -1.1328821E-26
   3.330000     -8.9247632E-27
   3.336000     -5.3651975E-27
   3.342000     -7.9351983E-28
   3.348000      4.5367795E-27
   3.354000      1.0268765E-26
   3.360000      1.5958701E-26
   3.366000      2.1102602E-26
   3.372000      2.5171686E-26
   3.378000      2.7654869E-26
   3.384000      2.8105567E-26
   3.390000      2.6189310E-26
   3.396000      2.1728223E-26
   3.402000      1.4738116E-26
   3.408000      5.4540029E-27
   3.414000     -5.6596163E-27
   3.420000     -1.7916650E-26
   3.426000     -3.0437181E-26
   3.432000     -4.2195390E-26
   3.438000     -5.2086242E-26
   3.444000     -5.9007739E-26
   3.450000     -6.1953980E-26
   3.456000     -6.0112563E-26
   3.462000     -5.2958895E-26
   3.468000     -4.0339164E-26
   3.474000     -2.2533578E-26
   3.480000     -2.9219188E-28
   3.486000      2.5163278E-26
   3.492000      5.2176228E-26
   3.498000      7.8732534E-26
   3.504000      1.0257743E-25
   3.510000      1.2136769E-25
   3.516000      1.3285113E-25
   3.522000      1.3506254E-25
   3.528000      1.2652248E-25
   3.534000      1.0642306E-25
   3.540000      7.4784390E-26
   3.546000      3.2565238E-26
   3.552000     -1.8286951E-26
   3.558000     -7.4858543E-26
   3.564000     -1.3337244E-25
   3.570000     -1.8937362E-25
   3.576000     -2.3799352E-25
   3.582000     -2.7428304E-25
   3.588000     -2.9359677E-25
   3.594000     -2.9200493E-25
   3.600000     -2.6670448E-25
   3.606000     -2.1639702E-25
   3.612000     -1.4159894E-25
   3.618000     -4.4851152E-26
   3.624000      6.9202422E-26
   3.630000      1.9389099E-25
   3.636000      3.2076327E-25
   3.642000      4.4000822E-25
   3.648000      5.4104109E-25
   3.654000      6.1323246E-25
   3.660000      6.4674263E-25
   3.666000      6.3341103E-25
   3.672000      5.6763867E-25
   3.678000      4.4719356E-25
   3.684000      2.7386512E-25
   3.690000      5.3894472E-26
   3.696000     -2.0188417E-25
   3.702000     -4.7824441E-25
   3.708000     -7.5614285E-25
   3.714000     -1.0136783E-24
   3.720000     -1.2274141E-24
   3.726000     -1.3740131E-24
   3.732000     -1.4321007E-24
   3.738000     -1.3842450E-24
   3.744000     -1.2189111E-24
   3.750000     -9.3223529E-25
   3.756000     -5.2944996E-25
   3.762000     -2.5796098E-26
   3.768000      5.5322475E-25
   3.774000      1.1723758E-24
   3.780000      1.7880611E-24
   3.786000      2.3505686E-24
   3.792000      2.8071314E-24
   3.798000      3.1056833E-24
   3.804000      3.1991152E-24
   3.810000      3.0497670E-24
   3.816000      2.6338303E-24
   3.822000      1.9452994E-24
   3.828000      9.9908652E-25
   3.834000     -1.6707365E-25
   3.840000     -1.4922614E-24
   3.846000     -2.8938102E-24
   3.852000     -4.2707001E-24
   3.858000     -5.5089198E-24
   3.864000     -6.4886685E-24
   3.870000     -7.0930831E-24
   3.876000     -7.2180252E-24
   3.882000     -6.7822995E-24
   3.888000     -5.7375392E-24
   3.894000     -4.0769251E-24
   3.900000     -1.8418689E-24
   3.906000      8.7418548E-25
   3.912000      3.9255616E-24
   3.918000      7.1182943E-24
   3.924000      1.0218507E-23
   3.930000      1.2965211E-23
   3.936000      1.5087115E-23
   3.942000      1.6322722E-23
   3.948000      1.6442558E-23
   3.954000      1.5272076E-23
   3.960000      1.2713506E-23
   3.966000      8.7647700E-24
   3.972000      3.5335084E-24
   3.978000     -2.7555671E-24
   3.984000     -9.7615384E-24
   3.990000     -1.7037469E-23
   3.996000     -2.4050411E-23
   4.002000     -3.0211041E-23
   4.008000     -3.4911929E-23
   4.014000     -3.7572621E-23
   4.020000     -3.7688947E-23
   4.026000     -3.4883224E-23
   4.032000     -2.8951583E-23
   4.038000     -1.9904234E-23
   4.044000     -7.9946351E-24
   4.050000      6.2663004E-24
   4.056000      2.2114060E-23
   4.062000      3.8554583E-23
   4.068000      5.4409371E-23
   4.074000      6.8380956E-23
   4.080000      7.9136342E-23
   4.086000      8.5404379E-23
   4.092000      8.6081398E-23
   4.098000      8.0337998E-23
   4.104000      6.7719001E-23
   4.110000      4.8227964E-23
   4.116000      2.2387833E-23
   4.122000     -8.7300357E-24
   4.128000     -4.3514647E-23
   4.134000     -7.9866121E-23
   4.140000     -1.1528984E-22
   4.146000     -1.4703231E-22
   4.152000     -1.7225364E-22
   4.158000     -1.8822809E-22
   4.164000     -1.9256129E-22
   4.170000     -1.8340947E-22
   4.176000     -1.5968500E-22
   4.182000     -1.2123079E-22
   4.188000     -6.8947131E-23
   4.194000     -4.8557923E-24
   4.200000      6.7910871E-23
   4.206000      1.4520366E-22
   4.212000      2.2203597E-22
   4.218000      2.9284549E-22
   4.224000      3.5182858E-22
   4.230000      3.9333084E-22
   4.236000      4.1227194E-22
   4.242000      4.0457740E-22
   4.248000      3.6758682E-22
   4.254000      3.0040618E-22
   4.260000      2.0417275E-22
   4.266000      8.2203604E-23
   4.272000     -5.9995150E-23
   4.278000     -2.1487435E-22
   4.284000     -3.7314890E-22
   4.290000     -5.2426136E-22
   4.296000     -6.5698416E-22
   4.302000     -7.6013420E-22
   4.308000     -8.2335798E-22
   4.314000     -8.3794078E-22
   4.320000     -7.9758457E-22
   4.326000     -6.9909641E-22
   4.332000     -5.4293002E-22
   4.338000     -3.3352847E-22
   4.344000     -7.9423248E-23
   4.350000      2.0693999E-22
   4.356000      5.0966422E-22
   4.362000      8.1014743E-22
   4.368000      1.0880876E-21
   4.374000      1.3227018E-21
   4.380000      1.4940931E-21
   4.386000      1.5846870E-21
   4.392000      1.5806422E-21
   4.398000      1.4731380E-21
   4.404000      1.2594375E-21
   4.410000      9.4363385E-22
   4.416000      5.3699976E-22
   4.422000      5.7881079E-23
   4.428000     -4.6890039E-22
   4.434000     -1.0131355E-21
   4.440000     -1.5407787E-21
   4.446000     -2.0158941E-21
   4.452000     -2.4029013E-21
   4.458000     -2.6689891E-21
   4.464000     -2.7865528E-21
   4.470000     -2.7354871E-21
   4.476000     -2.5051680E-21
   4.482000     -2.0959624E-21
   4.488000     -1.5201229E-21
   4.494000     -8.0195438E-22
   4.500000      2.2822027E-23
   4.506000      9.0853037E-22
   4.512000      1.8018005E-21
   4.518000      2.6445400E-21
   4.524000      3.3774778E-21
   4.530000      3.9440840E-21
   4.536000      4.2946305E-21
   4.542000      4.3901294E-21
   4.548000      4.2058665E-21
   4.554000      3.7342491E-21
   4.560000      2.9867210E-21
   4.566000      1.9945217E-21
   4.572000      8.0814188E-22
   4.578000     -5.0460774E-22
   4.584000     -1.8619046E-21
   4.590000     -3.1724925E-21
   4.596000     -4.3413306E-21
   4.602000     -5.2760156E-21
   4.608000     -5.8935980E-21
   4.614000     -6.1273489E-21
   4.620000     -5.9330010E-21
   4.626000     -5.2939616E-21
   4.632000     -4.2250394E-21
   4.638000     -2.7742614E-21
   4.644000     -1.0224594E-21
   4.650000      9.1956483E-22
   4.656000      2.9163593E-21
   4.662000      4.8154958E-21
   4.668000      6.4573035E-21
   4.674000      7.6861833E-21
   4.680000      8.3628493E-21
   4.686000      8.3767175E-21
   4.692000      7.6575526E-21
   4.698000      6.1854422E-21
   4.704000      3.9981613E-21
   4.710000      1.1951025E-21
   4.716000     -2.0629456E-21
   4.722000     -5.5586481E-21
   4.728000     -9.0278104E-21
   4.734000     -1.2173801E-20
   4.740000     -1.4686238E-20
   4.746000     -1.6263101E-20
   4.752000     -1.6635090E-20
   4.758000     -1.5590736E-20
   4.764000     -1.3000496E-20
   4.770000     -8.8379474E-21
   4.776000     -3.1961411E-21
   4.782000      3.7027262E-21
   4.788000      1.1505897E-20
   4.794000      1.9738122E-20
   4.800000      2.7819868E-20
   4.806000      3.5095706E-20
   4.812000      4.0872206E-20
   4.818000      4.4463876E-20
   4.824000      4.5244863E-20
   4.830000      4.2703571E-20
   4.836000      3.6496543E-20
   4.842000      2.6497711E-20
   4.848000      1.2838833E-20
   4.854000     -4.0629609E-21
   4.860000     -2.3494233E-20
   4.866000     -4.4453898E-20
   4.872000     -6.5683530E-20
   4.878000     -8.5720016E-20
   4.884000     -1.0296990E-19
   4.890000     -1.1580297E-19
   4.896000     -1.2266119E-19
   4.902000     -1.2217732E-19
   4.908000     -1.1329611E-19
   4.914000     -9.5390261E-20
   4.920000     -6.8362025E-20
   4.926000     -3.2721830E-20
   4.932000      1.0364582E-20
   4.938000      5.9067837E-20
   4.944000      1.1093078E-19
   4.950000      1.6295181E-19
   4.956000      2.1171591E-19
   4.962000      2.5357020E-19
   4.968000      2.8483786E-19
   4.974000      3.0206036E-19
   4.980000      3.0225521E-19
   4.986000      2.8317375E-19
   4.992000      2.4354120E-19
   4.998000      1.8326121E-19
   5.004000      1.0356666E-19
   5.010000      7.1003899E-21
   5.016000     -1.0208780E-19
   5.022000     -2.1863738E-19
   5.028000     -3.3607056E-19
   5.034000     -4.4708166E-19
   5.040000     -5.4391365E-19
   5.046000     -6.1880668E-19
   5.052000     -6.6449750E-19
   5.058000     -6.7474151E-19
   5.064000     -6.4482658E-19
   5.070000     -5.7204353E-19
   5.076000     -4.5607761E-19
   5.082000     -2.9928778E-19
   5.088000     -1.0684312E-19
   5.094000      1.1330676E-19
   5.100000      3.5064277E-19
   5.106000      5.9247308E-19
   5.112000      8.2450903E-19
   5.118000      1.0315999E-18
   5.124000      1.1985962E-18
   5.130000      1.3112961E-18
   5.136000      1.3574253E-18
   5.142000      1.3275870E-18
   5.148000      1.2161220E-18
   5.154000      1.0218125E-18
   5.160000      7.4837305E-19
   5.166000      4.0467573E-19
   5.172000      4.6732469E-21
   5.178000     -4.3300266E-19
   5.184000     -8.8576982E-19
   5.190000     -1.3281338E-18
   5.196000     -1.7329960E-18
   5.202000     -2.0731708E-18
   5.208000     -2.3230356E-18
   5.214000     -2.4602184E-18
   5.220000     -2.4672227E-18
   5.226000     -2.3328787E-18
   5.232000     -2.0535210E-18
   5.238000     -1.6337953E-18
   5.244000     -1.0870163E-18
   5.250000     -4.3502147E-19
   5.256000      2.9250807E-19
   5.262000      1.0592531E-18
   5.268000      1.8239535E-18
   5.274000      2.5425237E-18
   5.280000      3.1704834E-18
   5.286000      3.6655777E-18
   5.292000      3.9904326E-18
   5.298000      4.1150871E-18
   5.304000      4.0192371E-18
   5.310000      3.6940389E-18
   5.316000      3.1433254E-18
   5.322000      2.3841382E-18
   5.328000      1.4464936E-18
   5.334000      3.7235721E-19
   5.340000     -7.8615132E-19
   5.346000     -1.9692577E-18
   5.352000     -3.1126186E-18
   5.358000     -4.1508357E-18
   5.364000     -5.0212018E-18
   5.370000     -5.6674656E-18
   5.376000     -6.0433824E-18
   5.382000     -6.1158273E-18
   5.388000     -5.8672628E-18
   5.394000     -5.2973776E-18
   5.400000     -4.4237776E-18
   5.406000     -3.2816298E-18
   5.412000     -1.9222639E-18
   5.418000     -4.1076536E-19
   5.424000      1.1773210E-18
   5.430000      2.7600019E-18
   5.436000      4.2533420E-18
   5.442000      5.5762007E-18
   5.448000      6.6549170E-18
   5.454000      7.4276534E-18
   5.460000      7.8481242E-18
   5.466000      7.8884724E-18
   5.472000      7.5410905E-18
   5.478000      6.8192683E-18
   5.484000      5.7565985E-18
   5.490000      4.4051690E-18
   5.496000      2.8326339E-18
   5.502000      1.1183410E-18
   5.508000     -6.5125331E-19
   5.514000     -2.3875921E-18
   5.520000     -4.0051357E-18
   5.526000     -5.4262643E-18
   5.532000     -6.5856489E-18
   5.538000     -7.4338085E-18
   5.544000     -7.9396286E-18
   5.550000     -8.0916818E-18
   5.556000     -7.8982629E-18
   5.562000     -7.3861505E-18
   5.568000     -6.5981943E-18
   5.574000     -5.5898934E-18
   5.580000     -4.4252091E-18
   5.586000     -3.1719225E-18
   5.592000     -1.8968548E-18
   5.598000     -6.6129838E-19
   5.604000      4.8301811E-19
   5.610000      1.4971404E-18
   5.616000      2.3570396E-18
   5.622000      3.0545555E-18
   5.628000      3.5970516E-18
   5.634000      4.0058115E-18
   5.640000      4.3132833E-18
   5.646000      4.5593740E-18
   5.652000      4.7870572E-18
   5.658000      5.0376230E-18
   5.664000      5.3459091E-18
   5.670000      5.7358850E-18
   5.676000      6.2169257E-18
   5.682000      6.7810691E-18
   5.688000      7.4015054E-18
   5.694000      8.0324490E-18
   5.700000      8.6104795E-18
   5.706000      9.0573299E-18
   5.712000      9.2840179E-18
   5.718000      9.1961341E-18
   5.724000      8.7000350E-18
   5.730000      7.7095988E-18
   5.736000      6.1532547E-18