 -5.9999999E-02  0.0000000E+00
 -5.4000001E-02  0.0000000E+00
 -4.8000000E-02  0.0000000E+00
 -4.1999999E-02  0.0000000E+00
 -3.5999998E-02  0.0000000E+00
 -2.9999999E-02  0.0000000E+00
 -2.4000000E-02  0.0000000E+00
 -1.7999999E-02  0.0000000E+00
 -1.2000000E-02  0.0000000E+00
 -6.0000001E-03  0.0000000E+00
  3.4694470E-18  0.0000000E+00
  6.0000001E-03  0.0000000E+00
  1.2000000E-02  0.0000000E+00
  1.7999999E-02  0.0000000E+00
  2.4000000E-02  0.0000000E+00
  2.9999999E-02  0.0000000E+00
  3.5999998E-02  0.0000000E+00
  4.1999999E-02  0.0000000E+00
  4.8000000E-02  0.0000000E+00
  5.4000001E-02  0.0000000E+00
  5.9999999E-02  0.0000000E+00
  6.6000000E-02  0.0000000E+00
  7.1999997E-02  0.0000000E+00
  7.8000002E-02  0.0000000E+00
  8.3999999E-02  0.0000000E+00
  9.0000004E-02  0.0000000E+00
  9.6000001E-02  0.0000000E+00
  0.1020000      0.0000000E+00
  0.1080000      0.0000000E+00
  0.1140000      0.0000000E+00
  0.1200000      0.0000000E+00
  0.1260000      0.0000000E+00
  0.1320000      0.0000000E+00
  0.1380000      0.0000000E+00
  0.1440000      0.0000000E+00
  0.1500000      0.0000000E+00
  0.1560000      0.0000000E+00
  0.1620000      0.0000000E+00
  0.1680000      0.0000000E+00
  0.1740000      0.0000000E+00
  0.1800000      0.0000000E+00
  0.1860000      0.0000000E+00
  0.1920000      0.0000000E+00
  0.1980000      0.0000000E+00
  0.2040000      0.0000000E+00
  0.2100000      0.0000000E+00
  0.2160000      0.0000000E+00
  0.2220000      0.0000000E+00
  0.2280000      0.0000000E+00
  0.2340000      0.0000000E+00
  0.2400000      0.0000000E+00
  0.2460000      0.0000000E+00
  0.2520000      0.0000000E+00
  0.2580000      0.0000000E+00
  0.2640000      0.0000000E+00
  0.2700000      0.0000000E+00
  0.2760000      0.0000000E+00
  0.2820000      0.0000000E+00
  0.2880000      0.0000000E+00
  0.2940000      0.0000000E+00
  0.3000000      0.0000000E+00
  0.3060000      0.0000000E+00
  0.3120000      0.0000000E+00
  0.3180000      0.0000000E+00
  0.3240000      0.0000000E+00
  0.3300000      0.0000000E+00
  0.3360000      0.0000000E+00
  0.3420000      0.0000000E+00
  0.3480000      0.0000000E+00
  0.3540000      0.0000000E+00
  0.3600000      0.0000000E+00
  0.3660000      0.0000000E+00
  0.3720000      0.0000000E+00
  0.3780000      0.0000000E+00
  0.3840000      0.0000000E+00
  0.3900000      0.0000000E+00
  0.3960000      0.0000000E+00
  0.4020000      0.0000000E+00
  0.4080000      0.0000000E+00
  0.4140000      0.0000000E+00
  0.4200000      0.0000000E+00
  0.4260000      0.0000000E+00
  0.4320000      0.0000000E+00
  0.4380000      0.0000000E+00
  0.4440000      0.0000000E+00
  0.4500000      0.0000000E+00
  0.4560000      0.0000000E+00
  0.4620000      0.0000000E+00
  0.4680000      0.0000000E+00
  0.4740000      0.0000000E+00
  0.4800000      0.0000000E+00
  0.4860000      0.0000000E+00
  0.4920000      0.0000000E+00
  0.4980000      0.0000000E+00
  0.5040000      0.0000000E+00
  0.5100000      0.0000000E+00
  0.5160000      0.0000000E+00
  0.5220000      0.0000000E+00
  0.5280000      0.0000000E+00
  0.5340000      0.0000000E+00
  0.5400000      0.0000000E+00
  0.5460000      0.0000000E+00
  0.5520000      0.0000000E+00
  0.5580000      0.0000000E+00
  0.5640000      0.0000000E+00
  0.5700000      0.0000000E+00
  0.5760000      0.0000000E+00
  0.5820000      0.0000000E+00
  0.5880000      0.0000000E+00
  0.5940000      0.0000000E+00
  0.6000000      0.0000000E+00
  0.6060000      0.0000000E+00
  0.6120000      0.0000000E+00
  0.6180000      0.0000000E+00
  0.6240000      0.0000000E+00
  0.6300000      0.0000000E+00
  0.6360000      0.0000000E+00
  0.6420000      0.0000000E+00
  0.6480000      0.0000000E+00
  0.6540000      0.0000000E+00
  0.6600000      0.0000000E+00
  0.6660000      0.0000000E+00
  0.6720000      0.0000000E+00
  0.6780000      0.0000000E+00
  0.6840000      0.0000000E+00
  0.6900000      0.0000000E+00
  0.6960000      0.0000000E+00
  0.7020000      0.0000000E+00
  0.7080000      0.0000000E+00
  0.7140000      0.0000000E+00
  0.7200000      0.0000000E+00
  0.7260000      0.0000000E+00
  0.7320000      0.0000000E+00
  0.7380000      0.0000000E+00
  0.7440000      0.0000000E+00
  0.7500000      0.0000000E+00
  0.7560000      0.0000000E+00
  0.7620000      0.0000000E+00
  0.7680000      0.0000000E+00
  0.7740000      0.0000000E+00
  0.7800000      0.0000000E+00
  0.7860000      0.0000000E+00
  0.7920000      0.0000000E+00
  0.7980000      0.0000000E+00
  0.8040000      0.0000000E+00
  0.8100000      0.0000000E+00
  0.8160000      0.0000000E+00
  0.8220000      0.0000000E+00
  0.8280000      0.0000000E+00
  0.8340000      0.0000000E+00
  0.8400000      0.0000000E+00
  0.8460000      0.0000000E+00
  0.8520000      0.0000000E+00
  0.8580000      0.0000000E+00
  0.8640000      0.0000000E+00
  0.8700000      0.0000000E+00
  0.8760000      0.0000000E+00
  0.8820000      0.0000000E+00
  0.8880000      0.0000000E+00
  0.8940000      0.0000000E+00
  0.9000000      0.0000000E+00
  0.9060000      0.0000000E+00
  0.9120000      0.0000000E+00
  0.9180000      0.0000000E+00
  0.9240000      0.0000000E+00
  0.9300000      0.0000000E+00
  0.9360000      0.0000000E+00
  0.9420000      0.0000000E+00
  0.9480000      0.0000000E+00
  0.9540000      0.0000000E+00
  0.9600000      0.0000000E+00
  0.9660000      0.0000000E+00
  0.9720000      0.0000000E+00
  0.9780000      0.0000000E+00
  0.9840000      0.0000000E+00
  0.9900000      0.0000000E+00
  0.9960000      0.0000000E+00
   1.002000      0.0000000E+00
   1.008000      0.0000000E+00
   1.014000      0.0000000E+00
   1.020000      0.0000000E+00
   1.026000      0.0000000E+00
   1.032000      0.0000000E+00
   1.038000      0.0000000E+00
   1.044000      0.0000000E+00
   1.050000      0.0000000E+00
   1.056000      0.0000000E+00
   1.062000      0.0000000E+00
   1.068000      0.0000000E+00
   1.074000      0.0000000E+00
   1.080000      0.0000000E+00
   1.086000      0.0000000E+00
   1.092000      0.0000000E+00
   1.098000      0.0000000E+00
   1.104000      0.0000000E+00
   1.110000      0.0000000E+00
   1.116000      0.0000000E+00
   1.122000      0.0000000E+00
   1.128000      0.0000000E+00
   1.134000      0.0000000E+00
   1.140000      0.0000000E+00
   1.146000      0.0000000E+00
   1.152000      0.0000000E+00
   1.158000      0.0000000E+00
   1.164000      0.0000000E+00
   1.170000      0.0000000E+00
   1.176000      0.0000000E+00
   1.182000      0.0000000E+00
   1.188000      0.0000000E+00
   1.194000      0.0000000E+00
   1.200000      0.0000000E+00
   1.206000      0.0000000E+00
   1.212000      0.0000000E+00
   1.218000      0.0000000E+00
   1.224000      0.0000000E+00
   1.230000      0.0000000E+00
   1.236000      0.0000000E+00
   1.242000      0.0000000E+00
   1.248000      0.0000000E+00
   1.254000      0.0000000E+00
   1.260000      0.0000000E+00
   1.266000      0.0000000E+00
   1.272000      0.0000000E+00
   1.278000      0.0000000E+00
   1.284000      0.0000000E+00
   1.290000      0.0000000E+00
   1.296000      0.0000000E+00
   1.302000      0.0000000E+00
   1.308000      0.0000000E+00
   1.314000      0.0000000E+00
   1.320000      0.0000000E+00
   1.326000      0.0000000E+00
   1.332000      0.0000000E+00
   1.338000      0.0000000E+00
   1.344000      0.0000000E+00
   1.350000      0.0000000E+00
   1.356000      0.0000000E+00
   1.362000      0.0000000E+00
   1.368000      0.0000000E+00
   1.374000      0.0000000E+00
   1.380000      0.0000000E+00
   1.386000      0.0000000E+00
   1.392000      0.0000000E+00
   1.398000      0.0000000E+00
   1.404000      0.0000000E+00
   1.410000      0.0000000E+00
   1.416000      0.0000000E+00
   1.422000      0.0000000E+00
   1.428000      0.0000000E+00
   1.434000      0.0000000E+00
   1.440000      0.0000000E+00
   1.446000      0.0000000E+00
   1.452000      0.0000000E+00
   1.458000      0.0000000E+00
   1.464000      0.0000000E+00
   1.470000      0.0000000E+00
   1.476000      0.0000000E+00
   1.482000      0.0000000E+00
   1.488000      0.0000000E+00
   1.494000      0.0000000E+00
   1.500000      0.0000000E+00
   1.506000      0.0000000E+00
   1.512000      0.0000000E+00
   1.518000      0.0000000E+00
   1.524000      0.0000000E+00
   1.530000      0.0000000E+00
   1.536000      0.0000000E+00
   1.542000      0.0000000E+00
   1.548000      0.0000000E+00
   1.554000      0.0000000E+00
   1.560000      0.0000000E+00
   1.566000      0.0000000E+00
   1.572000      0.0000000E+00
   1.578000      0.0000000E+00
   1.584000      0.0000000E+00
   1.590000      0.0000000E+00
   1.596000      0.0000000E+00
   1.602000      0.0000000E+00
   1.608000      0.0000000E+00
   1.614000      0.0000000E+00
   1.620000      0.0000000E+00
   1.626000      0.0000000E+00
   1.632000      0.0000000E+00
   1.638000      0.0000000E+00
   1.644000      0.0000000E+00
   1.650000      0.0000000E+00
   1.656000      0.0000000E+00
   1.662000      0.0000000E+00
   1.668000      0.0000000E+00
   1.674000      0.0000000E+00
   1.680000      0.0000000E+00
   1.686000      0.0000000E+00
   1.692000      0.0000000E+00
   1.698000      0.0000000E+00
   1.704000      0.0000000E+00
   1.710000      0.0000000E+00
   1.716000      0.0000000E+00
   1.722000      0.0000000E+00
   1.728000      0.0000000E+00
   1.734000      0.0000000E+00
   1.740000      0.0000000E+00
   1.746000      0.0000000E+00
   1.752000      0.0000000E+00
   1.758000      0.0000000E+00
   1.764000      0.0000000E+00
   1.770000      0.0000000E+00
   1.776000      0.0000000E+00
   1.782000      0.0000000E+00
   1.788000      0.0000000E+00
   1.794000      0.0000000E+00
   1.800000      0.0000000E+00
   1.806000      0.0000000E+00
   1.812000      0.0000000E+00
   1.818000      0.0000000E+00
   1.824000      0.0000000E+00
   1.830000      0.0000000E+00
   1.836000      0.0000000E+00
   1.842000      0.0000000E+00
   1.848000      0.0000000E+00
   1.854000      0.0000000E+00
   1.860000      0.0000000E+00
   1.866000      0.0000000E+00
   1.872000      0.0000000E+00
   1.878000      0.0000000E+00
   1.884000      0.0000000E+00
   1.890000      0.0000000E+00
   1.896000      0.0000000E+00
   1.902000      0.0000000E+00
   1.908000      0.0000000E+00
   1.914000      0.0000000E+00
   1.920000      0.0000000E+00
   1.926000      0.0000000E+00
   1.932000      0.0000000E+00
   1.938000      0.0000000E+00
   1.944000      0.0000000E+00
   1.950000      0.0000000E+00
   1.956000      0.0000000E+00
   1.962000      0.0000000E+00
   1.968000      0.0000000E+00
   1.974000      0.0000000E+00
   1.980000      0.0000000E+00
   1.986000      0.0000000E+00
   1.992000      0.0000000E+00
   1.998000      0.0000000E+00
   2.004000      0.0000000E+00
   2.010000      0.0000000E+00
   2.016000      0.0000000E+00
   2.022000      0.0000000E+00
   2.028000      0.0000000E+00
   2.034000      0.0000000E+00
   2.040000      0.0000000E+00
   2.046000      0.0000000E+00
   2.052000      0.0000000E+00
   2.058000      0.0000000E+00
   2.064000      0.0000000E+00
   2.070000      0.0000000E+00
   2.076000      0.0000000E+00
   2.082000      0.0000000E+00
   2.088000      0.0000000E+00
   2.094000      0.0000000E+00
   2.100000      0.0000000E+00
   2.106000      0.0000000E+00
   2.112000      0.0000000E+00
   2.118000      0.0000000E+00
   2.124000      0.0000000E+00
   2.130000      0.0000000E+00
   2.136000      0.0000000E+00
   2.142000      0.0000000E+00
   2.148000      0.0000000E+00
   2.154000      0.0000000E+00
   2.160000      0.0000000E+00
   2.166000      0.0000000E+00
   2.172000      0.0000000E+00
   2.178000      0.0000000E+00
   2.184000      0.0000000E+00
   2.190000      0.0000000E+00
   2.196000      0.0000000E+00
   2.202000      0.0000000E+00
   2.208000      0.0000000E+00
   2.214000      0.0000000E+00
   2.220000      0.0000000E+00
   2.226000      0.0000000E+00
   2.232000      0.0000000E+00
   2.238000      0.0000000E+00
   2.244000      0.0000000E+00
   2.250000      0.0000000E+00
   2.256000      0.0000000E+00
   2.262000      0.0000000E+00
   2.268000      0.0000000E+00
   2.274000      0.0000000E+00
   2.280000      0.0000000E+00
   2.286000      0.0000000E+00
   2.292000      0.0000000E+00
   2.298000      0.0000000E+00
   2.304000      0.0000000E+00
   2.310000      0.0000000E+00
   2.316000      0.0000000E+00
   2.322000      0.0000000E+00
   2.328000      0.0000000E+00
   2.334000      0.0000000E+00
   2.340000      0.0000000E+00
   2.346000      0.0000000E+00
   2.352000      0.0000000E+00
   2.358000      0.0000000E+00
   2.364000      0.0000000E+00
   2.370000      0.0000000E+00
   2.376000      0.0000000E+00
   2.382000      0.0000000E+00
   2.388000      0.0000000E+00
   2.394000      0.0000000E+00
   2.400000      0.0000000E+00
   2.406000      0.0000000E+00
   2.412000      0.0000000E+00
   2.418000      0.0000000E+00
   2.424000      0.0000000E+00
   2.430000      0.0000000E+00
   2.436000      0.0000000E+00
   2.442000      0.0000000E+00
   2.448000      0.0000000E+00
   2.454000      0.0000000E+00
   2.460000      0.0000000E+00
   2.466000      0.0000000E+00
   2.472000      0.0000000E+00
   2.478000      0.0000000E+00
   2.484000      0.0000000E+00
   2.490000      0.0000000E+00
   2.496000      0.0000000E+00
   2.502000      0.0000000E+00
   2.508000      0.0000000E+00
   2.514000      0.0000000E+00
   2.520000      0.0000000E+00
   2.526000      0.0000000E+00
   2.532000      0.0000000E+00
   2.538000      0.0000000E+00
   2.544000      0.0000000E+00
   2.550000      0.0000000E+00
   2.556000      0.0000000E+00
   2.562000      0.0000000E+00
   2.568000      0.0000000E+00
   2.574000      0.0000000E+00
   2.580000      0.0000000E+00
   2.586000      0.0000000E+00
   2.592000      0.0000000E+00
   2.598000      0.0000000E+00
   2.604000      0.0000000E+00
   2.610000      0.0000000E+00
   2.616000      0.0000000E+00
   2.622000      0.0000000E+00
   2.628000      0.0000000E+00
   2.634000      0.0000000E+00
   2.640000      0.0000000E+00
   2.646000      0.0000000E+00
   2.652000      0.0000000E+00
   2.658000      0.0000000E+00
   2.664000      0.0000000E+00
   2.670000      0.0000000E+00
   2.676000      0.0000000E+00
   2.682000      0.0000000E+00
   2.688000      0.0000000E+00
   2.694000      0.0000000E+00
   2.700000      0.0000000E+00
   2.706000      0.0000000E+00
   2.712000      0.0000000E+00
   2.718000      0.0000000E+00
   2.724000      0.0000000E+00
   2.730000      0.0000000E+00
   2.736000      0.0000000E+00
   2.742000      0.0000000E+00
   2.748000      0.0000000E+00
   2.754000      0.0000000E+00
   2.760000      0.0000000E+00
   2.766000      0.0000000E+00
   2.772000      0.0000000E+00
   2.778000      0.0000000E+00
   2.784000      0.0000000E+00
   2.790000      0.0000000E+00
   2.796000      0.0000000E+00
   2.802000      0.0000000E+00
   2.808000      0.0000000E+00
   2.814000      0.0000000E+00
   2.820000      0.0000000E+00
   2.826000      0.0000000E+00
   2.832000      0.0000000E+00
   2.838000      0.0000000E+00
   2.844000      0.0000000E+00
   2.850000      0.0000000E+00
   2.856000      0.0000000E+00
   2.862000      0.0000000E+00
   2.868000      0.0000000E+00
   2.874000      0.0000000E+00
   2.880000      0.0000000E+00
   2.886000      0.0000000E+00
   2.892000      0.0000000E+00
   2.898000      0.0000000E+00
   2.904000      0.0000000E+00
   2.910000      0.0000000E+00
   2.916000      0.0000000E+00
   2.922000      0.0000000E+00
   2.928000      0.0000000E+00
   2.934000      0.0000000E+00
   2.940000      0.0000000E+00
   2.946000      0.0000000E+00
   2.952000      0.0000000E+00
   2.958000      0.0000000E+00
   2.964000      0.0000000E+00
   2.970000      0.0000000E+00
   2.976000      0.0000000E+00
   2.982000      0.0000000E+00
   2.988000      0.0000000E+00
   2.994000      0.0000000E+00
   3.000000      0.0000000E+00
   3.006000      0.0000000E+00
   3.012000      0.0000000E+00
   3.018000      0.0000000E+00
   3.024000      0.0000000E+00
   3.030000      0.0000000E+00
   3.036000      0.0000000E+00
   3.042000      0.0000000E+00
   3.048000      0.0000000E+00
   3.054000      0.0000000E+00
   3.060000      0.0000000E+00
   3.066000      0.0000000E+00
   3.072000      0.0000000E+00
   3.078000      0.0000000E+00
   3.084000      0.0000000E+00
   3.090000      0.0000000E+00
   3.096000      0.0000000E+00
   3.102000      0.0000000E+00
   3.108000      0.0000000E+00
   3.114000      0.0000000E+00
   3.120000      0.0000000E+00
   3.126000      0.0000000E+00
   3.132000      0.0000000E+00
   3.138000      0.0000000E+00
   3.144000      0.0000000E+00
   3.150000      0.0000000E+00
   3.156000      0.0000000E+00
   3.162000      0.0000000E+00
   3.168000      0.0000000E+00
   3.174000      0.0000000E+00
   3.180000      0.0000000E+00
   3.186000      0.0000000E+00
   3.192000      0.0000000E+00
   3.198000      0.0000000E+00
   3.204000      0.0000000E+00
   3.210000      0.0000000E+00
   3.216000      0.0000000E+00
   3.222000      0.0000000E+00
   3.228000      0.0000000E+00
   3.234000      0.0000000E+00
   3.240000      0.0000000E+00
   3.246000      0.0000000E+00
   3.252000      0.0000000E+00
   3.258000      0.0000000E+00
   3.264000      0.0000000E+00
   3.270000      0.0000000E+00
   3.276000      0.0000000E+00
   3.282000      0.0000000E+00
   3.288000      0.0000000E+00
   3.294000      0.0000000E+00
   3.300000      0.0000000E+00
   3.306000      0.0000000E+00
   3.312000      0.0000000E+00
   3.318000      0.0000000E+00
   3.324000      0.0000000E+00
   3.330000      0.0000000E+00
   3.336000      0.0000000E+00
   3.342000      0.0000000E+00
   3.348000      0.0000000E+00
   3.354000      0.0000000E+00
   3.360000      0.0000000E+00
   3.366000      0.0000000E+00
   3.372000      0.0000000E+00
   3.378000      0.0000000E+00
   3.384000      0.0000000E+00
   3.390000      0.0000000E+00
   3.396000      0.0000000E+00
   3.402000      0.0000000E+00
   3.408000      0.0000000E+00
   3.414000      0.0000000E+00
   3.420000      0.0000000E+00
   3.426000      0.0000000E+00
   3.432000      0.0000000E+00
   3.438000      0.0000000E+00
   3.444000      0.0000000E+00
   3.450000      0.0000000E+00
   3.456000      0.0000000E+00
   3.462000      0.0000000E+00
   3.468000      0.0000000E+00
   3.474000      0.0000000E+00
   3.480000      0.0000000E+00
   3.486000      0.0000000E+00
   3.492000      0.0000000E+00
   3.498000      0.0000000E+00
   3.504000      0.0000000E+00
   3.510000      0.0000000E+00
   3.516000      0.0000000E+00
   3.522000      0.0000000E+00
   3.528000      0.0000000E+00
   3.534000      0.0000000E+00
   3.540000      0.0000000E+00
   3.546000      0.0000000E+00
   3.552000      0.0000000E+00
   3.558000      0.0000000E+00
   3.564000      0.0000000E+00
   3.570000      0.0000000E+00
   3.576000      0.0000000E+00
   3.582000      0.0000000E+00
   3.588000      0.0000000E+00
   3.594000      0.0000000E+00
   3.600000      0.0000000E+00
   3.606000      0.0000000E+00
   3.612000      0.0000000E+00
   3.618000      0.0000000E+00
   3.624000      1.5145168E-38
   3.630000      2.0001073E-38
   3.636000      2.3228597E-38
   3.642000      0.0000000E+00
   3.648000     -2.8749670E-38
   3.654000     -5.2403877E-38
   3.660000     -7.0961939E-38
   3.666000     -7.3132399E-38
   3.672000     -5.5926662E-38
   3.678000     -2.7981464E-38
   3.684000      0.0000000E+00
   3.690000      2.4408629E-38
   3.696000      3.8568574E-38
   3.702000      4.2381162E-38
   3.708000      3.9658549E-38
   3.714000      2.4512861E-38
   3.720000      0.0000000E+00
   3.726000     -1.3648924E-38
   3.732000     -1.5878570E-38
   3.738000      0.0000000E+00
   3.744000      2.1288608E-38
   3.750000      7.9601976E-38
   3.756000      2.0092905E-37
   3.762000      3.4454293E-37
   3.768000      4.4268628E-37
   3.774000      4.5829231E-37
   3.780000      3.5941386E-37
   3.786000      1.3735115E-37
   3.792000     -1.7720399E-37
   3.798000     -6.0309518E-37
   3.804000     -1.1290648E-36
   3.810000     -1.6653998E-36
   3.816000     -2.0935282E-36
   3.822000     -2.3199704E-36
   3.828000     -2.2435338E-36
   3.834000     -1.8146848E-36
   3.840000     -1.1157993E-36
   3.846000     -1.2948558E-37
   3.852000      1.0707767E-36
   3.858000      2.3841234E-36
   3.864000      3.6643263E-36
   3.870000      4.7293885E-36
   3.876000      5.4283409E-36
   3.882000      5.5066719E-36
   3.888000      4.8806807E-36
   3.894000      3.5356458E-36
   3.900000      1.5339177E-36
   3.906000     -1.0698030E-36
   3.912000     -4.0433802E-36
   3.918000     -7.1200024E-36
   3.924000     -9.9688428E-36
   3.930000     -1.2191996E-35
   3.936000     -1.3431535E-35
   3.942000     -1.3359588E-35
   3.948000     -1.1721808E-35
   3.954000     -8.4060000E-36
   3.960000     -3.4738082E-36
   3.966000      2.8109419E-36
   3.972000      1.0006427E-35
   3.978000      1.7467985E-35
   3.984000      2.4485140E-35
   3.990000      3.0226397E-35
   3.996000      3.3833873E-35
   4.002000      3.4560461E-35
   4.008000      3.1715647E-35
   4.014000      2.4867615E-35
   4.020000      1.3860832E-35
   4.026000     -9.9736739E-37
   4.032000     -1.9036768E-35
   4.038000     -3.9137889E-35
   4.044000     -5.9661217E-35
   4.050000     -7.8613607E-35
   4.056000     -9.3723588E-35
   4.062000     -1.0260346E-34
   4.068000     -1.0299886E-34
   4.074000     -9.3040671E-35
   4.080000     -7.1523740E-35
   4.086000     -3.8177210E-35
   4.092000      6.1540652E-36
   4.098000      5.9353700E-35
   4.104000      1.1802039E-34
   4.110000      1.7755703E-34
   4.116000      2.3242444E-34
   4.122000      2.7646399E-34
   4.128000      3.0339022E-34
   4.134000      3.0733725E-34
   4.140000      2.8347150E-34
   4.146000      2.2863507E-34
   4.152000      1.4188639E-34
   4.158000      2.4994405E-35
   4.164000     -1.1724120E-34
   4.170000     -2.7686848E-34
   4.176000     -4.4292953E-34
   4.182000     -6.0187666E-34
   4.188000     -7.3832474E-34
   4.194000     -8.3607238E-34
   4.200000     -8.7939045E-34
   4.206000     -8.5448944E-34
   4.212000     -7.5106536E-34
   4.218000     -5.6379671E-34
   4.224000     -2.9363601E-34
   4.230000      5.1225409E-35
   4.236000      4.5487265E-34
   4.242000      8.9375196E-34
   4.248000      1.3373849E-33
   4.254000      1.7498490E-33
   4.260000      2.0917808E-33
   4.266000      2.3230566E-33
   4.272000      2.4059339E-33
   4.278000      2.3084882E-33
   4.284000      2.0081205E-33
   4.290000      1.4948663E-33
   4.296000      7.7419546E-34
   4.302000     -1.3100664E-34
   4.308000     -1.1795691E-33
   4.314000     -2.3125190E-33
   4.320000     -3.4550747E-33
   4.326000     -4.5201927E-33
   4.332000     -5.4135879E-33
   4.338000     -6.0399993E-33
   4.344000     -6.3103475E-33
   4.350000     -6.1493225E-33
   4.356000     -5.5028542E-33
   4.362000     -4.3449012E-33
   4.368000     -2.6829869E-33
   4.374000     -5.6198769E-34
   4.380000      1.9342499E-33
   4.386000      4.6837605E-33
   4.392000      7.5299545E-33
   4.398000      1.0287789E-32
   4.404000      1.2752497E-32
   4.410000      1.4710605E-32
   4.416000      1.5952816E-32
   4.422000      1.6288188E-32
   4.428000      1.5558874E-32
   4.434000      1.3654638E-32
   4.440000      1.0526213E-32
   4.446000      6.1965891E-33
   4.452000      7.6930806E-34
   4.458000     -5.5671008E-33
   4.464000     -1.2539233E-32
   4.470000     -1.9794014E-32
   4.476000     -2.6909243E-32
   4.482000     -3.3409486E-32
   4.488000     -3.8786997E-32
   4.494000     -4.2527090E-32
   4.500000     -4.4137142E-32
   4.506000     -4.3178109E-32
   4.512000     -3.9297414E-32
   4.518000     -3.2261728E-32
   4.524000     -2.1988157E-32
   4.530000     -8.5722103E-33
   4.536000      7.6891591E-33
   4.542000      2.6281133E-32
   4.548000      4.6463010E-32
   4.554000      6.7270391E-32
   4.560000      8.7529413E-32
   4.566000      1.0588482E-31
   4.572000      1.2084375E-31
   4.578000      1.3083642E-31
   4.584000      1.3429475E-31
   4.590000      1.2974835E-31
   4.596000      1.1593657E-31
   4.602000      9.1933021E-32
   4.608000      5.7277367E-32
   4.614000      1.2106997E-32
   4.620000     -4.2721029E-32
   4.626000     -1.0552879E-31
   4.632000     -1.7375016E-31
   4.638000     -2.4391042E-31
   4.644000     -3.1166641E-31
   4.650000     -3.7191809E-31
   4.656000     -4.1900092E-31
   4.662000     -4.4696268E-31
   4.668000     -4.4992366E-31
   4.674000     -4.2251221E-31
   4.680000     -3.6035974E-31
   4.686000     -2.6063214E-31
   4.692000     -1.2256552E-31
   4.698000      5.2032440E-32
   4.704000      2.5836155E-31
   4.710000      4.8833755E-31
   4.716000      7.3048148E-31
   4.722000      9.7003816E-31
   4.728000      1.1893649E-30
   4.734000      1.3686203E-30
   4.740000      1.4867652E-30
   4.746000      1.5228681E-30
   4.752000      1.4576766E-30
   4.758000      1.2753954E-30
   4.764000      9.6557419E-31
   4.770000      5.2498245E-31
   4.776000     -4.0674514E-32
   4.782000     -7.1536538E-31
   4.788000     -1.4718410E-30
   4.794000     -2.2714106E-30
   4.800000     -3.0645363E-30
   4.806000     -3.7923622E-30
   4.812000     -4.3892459E-30
   4.818000     -4.7862959E-30
   4.824000     -4.9158429E-30
   4.830000     -4.7166841E-30
   4.836000     -4.1398575E-30
   4.842000     -3.1546134E-30
   4.848000     -1.7541699E-30
   4.854000      3.9211124E-32
   4.860000      2.1703385E-30
   4.866000      4.5489062E-30
   4.872000      7.0494904E-30
   4.878000      9.5141436E-30
   4.884000      1.1757870E-29
   4.890000      1.3577141E-29
   4.896000      1.4761355E-29
   4.902000      1.5106964E-29
   4.908000      1.4433691E-29
   4.914000      1.2602020E-29
   4.920000      9.5308924E-30
   4.926000      5.2143199E-30
   4.932000     -2.6449871E-31
   4.938000     -6.7230709E-30
   4.944000     -1.3874968E-29
   4.950000     -2.1331967E-29
   4.956000     -2.8614029E-29
   4.962000     -3.5167758E-29
   4.968000     -4.0393492E-29
   4.974000     -4.3680540E-29
   4.980000     -4.4449407E-29
   4.986000     -4.2199123E-29
   4.992000     -3.6557139E-29
   4.998000     -2.7328528E-29
   5.004000     -1.4540900E-29
   5.010000      1.5190672E-30
   5.016000      2.0281473E-29
   5.022000      4.0885287E-29
   5.028000      6.2190017E-29
   5.034000      8.2809384E-29
   5.040000      1.0116827E-28
   5.046000      1.1558276E-28
   5.052000      1.2436145E-28
   5.058000      1.2592432E-28
   5.064000      1.1893346E-28
   5.070000      1.0242853E-28
   5.076000      7.5958033E-29
   5.082000      3.9696209E-29
   5.088000     -5.4649409E-30
   5.094000     -5.7859305E-29
   5.100000     -1.1503576E-28
   5.106000     -1.7380109E-28
   5.112000     -2.3032211E-28
   5.118000     -2.8028981E-28
   5.124000     -3.1914366E-28
   5.130000     -3.4235001E-28
   5.136000     -3.4572356E-28
   5.142000     -3.2577647E-28
   5.148000     -2.8007461E-28
   5.154000     -2.0757709E-28
   5.160000     -1.0893281E-28
   5.166000      1.3293960E-29
   5.172000      1.5449551E-28
   5.178000      3.0801475E-28
   5.184000      4.6528055E-28
   5.190000      6.1609767E-28
   5.196000      7.4909334E-28
   5.202000      8.5231664E-28
   5.208000      9.1396970E-28
   5.214000      9.2324305E-28
   5.220000      8.7121145E-28
   5.226000      7.5173933E-28
   5.232000      5.6233452E-28
   5.238000      3.0488343E-28
   5.244000     -1.3800633E-29
   5.250000     -3.8168200E-28
   5.256000     -7.8151897E-28
   5.262000     -1.1912377E-27
   5.268000     -1.5846927E-27
   5.274000     -1.9328203E-27
   5.280000     -2.2051649E-27
   5.286000     -2.3717309E-27
   5.292000     -2.4050811E-27
   5.298000     -2.2825775E-27
   5.304000     -1.9886324E-27
   5.310000     -1.5168168E-27
   5.316000     -8.7166597E-28
   5.322000     -7.0012519E-29
   5.328000      8.5831225E-28
   5.334000      1.8705469E-27
   5.340000      2.9119487E-27
   5.346000      3.9176824E-27
   5.352000      4.8156653E-27
   5.358000      5.5303055E-27
   5.364000      5.9870240E-27
   5.370000      6.1173582E-27
   5.376000      5.8643954E-27
   5.382000      5.1882253E-27
   5.388000      4.0710388E-27
   5.394000      2.5215005E-27
   5.400000      5.7798722E-28
   5.406000     -1.6896686E-27
   5.412000     -4.1802645E-27
   5.418000     -6.7633883E-27
   5.424000     -9.2838066E-27
   5.430000     -1.1568095E-26
   5.436000     -1.3433403E-26
   5.442000     -1.4698061E-26
   5.448000     -1.5193601E-26
   5.454000     -1.4777597E-26
   5.460000     -1.3346599E-26
   5.466000     -1.0848325E-26
   5.472000     -7.2922310E-27
   5.478000     -2.7575145E-27
   5.484000      2.6022896E-27
   5.490000      8.5589089E-27
   5.496000      1.4813717E-26
   5.502000      2.1007263E-26
   5.508000      2.6734046E-26
   5.514000      3.1562254E-26
   5.520000      3.5057897E-26
   5.526000      3.6812342E-26
   5.532000      3.6471912E-26
   5.538000      3.3767989E-26
   5.544000      2.8545665E-26
   5.550000      2.0788987E-26
   5.556000      1.0640705E-26
   5.562000     -1.5854502E-27
   5.568000     -1.5401726E-26
   5.574000     -3.0153918E-26
   5.580000     -4.5040491E-26
   5.586000     -5.9143515E-26
   5.592000     -7.1471001E-26
   5.598000     -8.1009507E-26
   5.604000     -8.6784881E-26
   5.610000     -8.7928606E-26
   5.616000     -8.3746047E-26
   5.622000     -7.3782845E-26
   5.628000     -5.7884770E-26
   5.634000     -3.6246701E-26
   5.640000     -9.4461402E-27
   5.646000      2.1542762E-26
   5.652000      5.5358043E-26
   5.658000      9.0283966E-26
   5.664000      1.2431138E-25
   5.670000      1.5522395E-25
   5.676000      1.8070820E-25
   5.682000      1.9848364E-25
   5.688000      2.0644717E-25
   5.694000      2.0282521E-25
   5.700000      1.8632451E-25
   5.706000      1.5627269E-25
   5.712000      1.1273849E-25
   5.718000      5.6621786E-26
   5.724000     -1.0295648E-26
   5.730000     -8.5346824E-26
   5.736000     -1.6502952E-25