 -5.9999999E-02  0.0000000E+00
 -5.4000001E-02  0.0000000E+00
 -4.8000000E-02  0.0000000E+00
 -4.1999999E-02  0.0000000E+00
 -3.5999998E-02  0.0000000E+00
 -2.9999999E-02  0.0000000E+00
 -2.4000000E-02  0.0000000E+00
 -1.7999999E-02  0.0000000E+00
 -1.2000000E-02  0.0000000E+00
 -6.0000001E-03  0.0000000E+00
  3.4694470E-18  0.0000000E+00
  6.0000001E-03  0.0000000E+00
  1.2000000E-02  0.0000000E+00
  1.7999999E-02  0.0000000E+00
  2.4000000E-02  0.0000000E+00
  2.9999999E-02  0.0000000E+00
  3.5999998E-02  0.0000000E+00
  4.1999999E-02  0.0000000E+00
  4.8000000E-02  0.0000000E+00
  5.4000001E-02  0.0000000E+00
  5.9999999E-02  0.0000000E+00
  6.6000000E-02  0.0000000E+00
  7.1999997E-02  0.0000000E+00
  7.8000002E-02  0.0000000E+00
  8.3999999E-02  0.0000000E+00
  9.0000004E-02  0.0000000E+00
  9.6000001E-02  0.0000000E+00
  0.1020000      0.0000000E+00
  0.1080000      0.0000000E+00
  0.1140000      0.0000000E+00
  0.1200000      0.0000000E+00
  0.1260000      0.0000000E+00
  0.1320000      0.0000000E+00
  0.1380000      0.0000000E+00
  0.1440000      0.0000000E+00
  0.1500000      0.0000000E+00
  0.1560000      0.0000000E+00
  0.1620000      0.0000000E+00
  0.1680000      0.0000000E+00
  0.1740000      0.0000000E+00
  0.1800000      0.0000000E+00
  0.1860000      0.0000000E+00
  0.1920000      0.0000000E+00
  0.1980000      0.0000000E+00
  0.2040000      0.0000000E+00
  0.2100000      0.0000000E+00
  0.2160000      0.0000000E+00
  0.2220000      0.0000000E+00
  0.2280000      0.0000000E+00
  0.2340000      0.0000000E+00
  0.2400000      0.0000000E+00
  0.2460000      0.0000000E+00
  0.2520000      0.0000000E+00
  0.2580000      0.0000000E+00
  0.2640000      0.0000000E+00
  0.2700000      0.0000000E+00
  0.2760000      0.0000000E+00
  0.2820000      0.0000000E+00
  0.2880000      0.0000000E+00
  0.2940000      0.0000000E+00
  0.3000000      0.0000000E+00
  0.3060000      0.0000000E+00
  0.3120000      0.0000000E+00
  0.3180000      0.0000000E+00
  0.3240000      0.0000000E+00
  0.3300000      0.0000000E+00
  0.3360000      0.0000000E+00
  0.3420000      0.0000000E+00
  0.3480000      0.0000000E+00
  0.3540000      0.0000000E+00
  0.3600000      0.0000000E+00
  0.3660000      0.0000000E+00
  0.3720000      0.0000000E+00
  0.3780000      0.0000000E+00
  0.3840000      0.0000000E+00
  0.3900000      0.0000000E+00
  0.3960000      0.0000000E+00
  0.4020000      0.0000000E+00
  0.4080000      0.0000000E+00
  0.4140000      0.0000000E+00
  0.4200000      0.0000000E+00
  0.4260000      0.0000000E+00
  0.4320000      0.0000000E+00
  0.4380000      0.0000000E+00
  0.4440000      0.0000000E+00
  0.4500000      0.0000000E+00
  0.4560000      0.0000000E+00
  0.4620000      0.0000000E+00
  0.4680000      0.0000000E+00
  0.4740000      0.0000000E+00
  0.4800000      0.0000000E+00
  0.4860000      0.0000000E+00
  0.4920000      0.0000000E+00
  0.4980000      0.0000000E+00
  0.5040000      0.0000000E+00
  0.5100000      0.0000000E+00
  0.5160000      0.0000000E+00
  0.5220000      0.0000000E+00
  0.5280000      0.0000000E+00
  0.5340000      0.0000000E+00
  0.5400000      0.0000000E+00
  0.5460000      0.0000000E+00
  0.5520000      0.0000000E+00
  0.5580000      0.0000000E+00
  0.5640000      0.0000000E+00
  0.5700000      0.0000000E+00
  0.5760000      0.0000000E+00
  0.5820000      0.0000000E+00
  0.5880000      0.0000000E+00
  0.5940000      0.0000000E+00
  0.6000000      0.0000000E+00
  0.6060000      0.0000000E+00
  0.6120000      0.0000000E+00
  0.6180000      0.0000000E+00
  0.6240000      0.0000000E+00
  0.6300000      0.0000000E+00
  0.6360000      0.0000000E+00
  0.6420000      0.0000000E+00
  0.6480000      0.0000000E+00
  0.6540000      0.0000000E+00
  0.6600000      0.0000000E+00
  0.6660000      0.0000000E+00
  0.6720000      0.0000000E+00
  0.6780000      0.0000000E+00
  0.6840000      0.0000000E+00
  0.6900000      0.0000000E+00
  0.6960000      0.0000000E+00
  0.7020000      0.0000000E+00
  0.7080000      0.0000000E+00
  0.7140000      0.0000000E+00
  0.7200000      0.0000000E+00
  0.7260000      0.0000000E+00
  0.7320000      0.0000000E+00
  0.7380000      0.0000000E+00
  0.7440000      0.0000000E+00
  0.7500000      0.0000000E+00
  0.7560000      0.0000000E+00
  0.7620000      0.0000000E+00
  0.7680000      0.0000000E+00
  0.7740000      0.0000000E+00
  0.7800000      0.0000000E+00
  0.7860000      0.0000000E+00
  0.7920000      0.0000000E+00
  0.7980000      0.0000000E+00
  0.8040000      0.0000000E+00
  0.8100000      0.0000000E+00
  0.8160000      0.0000000E+00
  0.8220000      0.0000000E+00
  0.8280000      0.0000000E+00
  0.8340000      0.0000000E+00
  0.8400000      0.0000000E+00
  0.8460000      0.0000000E+00
  0.8520000      0.0000000E+00
  0.8580000      0.0000000E+00
  0.8640000      0.0000000E+00
  0.8700000      0.0000000E+00
  0.8760000      0.0000000E+00
  0.8820000      0.0000000E+00
  0.8880000      0.0000000E+00
  0.8940000      0.0000000E+00
  0.9000000      0.0000000E+00
  0.9060000      0.0000000E+00
  0.9120000      0.0000000E+00
  0.9180000      0.0000000E+00
  0.9240000      0.0000000E+00
  0.9300000      0.0000000E+00
  0.9360000      0.0000000E+00
  0.9420000      0.0000000E+00
  0.9480000      0.0000000E+00
  0.9540000      0.0000000E+00
  0.9600000      0.0000000E+00
  0.9660000      0.0000000E+00
  0.9720000      0.0000000E+00
  0.9780000      0.0000000E+00
  0.9840000      0.0000000E+00
  0.9900000      0.0000000E+00
  0.9960000      0.0000000E+00
   1.002000      0.0000000E+00
   1.008000      0.0000000E+00
   1.014000      0.0000000E+00
   1.020000      0.0000000E+00
   1.026000      0.0000000E+00
   1.032000      0.0000000E+00
   1.038000      0.0000000E+00
   1.044000      0.0000000E+00
   1.050000      0.0000000E+00
   1.056000      0.0000000E+00
   1.062000      0.0000000E+00
   1.068000      0.0000000E+00
   1.074000      0.0000000E+00
   1.080000      0.0000000E+00
   1.086000      0.0000000E+00
   1.092000      0.0000000E+00
   1.098000      0.0000000E+00
   1.104000      0.0000000E+00
   1.110000      0.0000000E+00
   1.116000      0.0000000E+00
   1.122000      0.0000000E+00
   1.128000      0.0000000E+00
   1.134000      0.0000000E+00
   1.140000      0.0000000E+00
   1.146000      0.0000000E+00
   1.152000      0.0000000E+00
   1.158000      0.0000000E+00
   1.164000      0.0000000E+00
   1.170000      0.0000000E+00
   1.176000      0.0000000E+00
   1.182000      0.0000000E+00
   1.188000      0.0000000E+00
   1.194000      0.0000000E+00
   1.200000      0.0000000E+00
   1.206000      0.0000000E+00
   1.212000      0.0000000E+00
   1.218000      0.0000000E+00
   1.224000      0.0000000E+00
   1.230000      0.0000000E+00
   1.236000      0.0000000E+00
   1.242000      0.0000000E+00
   1.248000      0.0000000E+00
   1.254000      0.0000000E+00
   1.260000      0.0000000E+00
   1.266000      0.0000000E+00
   1.272000      0.0000000E+00
   1.278000      0.0000000E+00
   1.284000      0.0000000E+00
   1.290000      0.0000000E+00
   1.296000      0.0000000E+00
   1.302000      0.0000000E+00
   1.308000      0.0000000E+00
   1.314000      0.0000000E+00
   1.320000      0.0000000E+00
   1.326000      0.0000000E+00
   1.332000      0.0000000E+00
   1.338000      0.0000000E+00
   1.344000      0.0000000E+00
   1.350000      0.0000000E+00
   1.356000      0.0000000E+00
   1.362000      0.0000000E+00
   1.368000      0.0000000E+00
   1.374000      0.0000000E+00
   1.380000      0.0000000E+00
   1.386000      0.0000000E+00
   1.392000      0.0000000E+00
   1.398000      0.0000000E+00
   1.404000      0.0000000E+00
   1.410000      0.0000000E+00
   1.416000      0.0000000E+00
   1.422000      0.0000000E+00
   1.428000      0.0000000E+00
   1.434000      0.0000000E+00
   1.440000      0.0000000E+00
   1.446000      0.0000000E+00
   1.452000      0.0000000E+00
   1.458000      0.0000000E+00
   1.464000      0.0000000E+00
   1.470000      0.0000000E+00
   1.476000      0.0000000E+00
   1.482000      0.0000000E+00
   1.488000      0.0000000E+00
   1.494000      0.0000000E+00
   1.500000      0.0000000E+00
   1.506000      0.0000000E+00
   1.512000      0.0000000E+00
   1.518000      0.0000000E+00
   1.524000      0.0000000E+00
   1.530000      0.0000000E+00
   1.536000      0.0000000E+00
   1.542000      0.0000000E+00
   1.548000      0.0000000E+00
   1.554000      0.0000000E+00
   1.560000      0.0000000E+00
   1.566000      0.0000000E+00
   1.572000      0.0000000E+00
   1.578000      0.0000000E+00
   1.584000      0.0000000E+00
   1.590000      0.0000000E+00
   1.596000      0.0000000E+00
   1.602000      0.0000000E+00
   1.608000      0.0000000E+00
   1.614000      0.0000000E+00
   1.620000      0.0000000E+00
   1.626000      0.0000000E+00
   1.632000      0.0000000E+00
   1.638000      0.0000000E+00
   1.644000      0.0000000E+00
   1.650000      0.0000000E+00
   1.656000      0.0000000E+00
   1.662000      0.0000000E+00
   1.668000      0.0000000E+00
   1.674000      0.0000000E+00
   1.680000      0.0000000E+00
   1.686000      0.0000000E+00
   1.692000      0.0000000E+00
   1.698000      0.0000000E+00
   1.704000      0.0000000E+00
   1.710000      0.0000000E+00
   1.716000      0.0000000E+00
   1.722000      0.0000000E+00
   1.728000      0.0000000E+00
   1.734000      0.0000000E+00
   1.740000      0.0000000E+00
   1.746000      0.0000000E+00
   1.752000      0.0000000E+00
   1.758000      0.0000000E+00
   1.764000      0.0000000E+00
   1.770000      0.0000000E+00
   1.776000      0.0000000E+00
   1.782000      0.0000000E+00
   1.788000      0.0000000E+00
   1.794000      0.0000000E+00
   1.800000      0.0000000E+00
   1.806000      0.0000000E+00
   1.812000      0.0000000E+00
   1.818000      0.0000000E+00
   1.824000      0.0000000E+00
   1.830000      0.0000000E+00
   1.836000      0.0000000E+00
   1.842000      0.0000000E+00
   1.848000      0.0000000E+00
   1.854000      0.0000000E+00
   1.860000      0.0000000E+00
   1.866000      2.2861865E-38
   1.872000      3.7907077E-38
   1.878000      5.1998744E-38
   1.884000      6.1737993E-38
   1.890000      7.0046874E-38
   1.896000      7.1228040E-38
   1.902000      4.4329135E-38
   1.908000      0.0000000E+00
   1.914000     -6.5273273E-38
   1.920000     -1.5149848E-37
   1.926000     -2.3604057E-37
   1.932000     -3.0067128E-37
   1.938000     -2.8354537E-37
   1.944000     -1.7886817E-37
   1.950000      0.0000000E+00
   1.956000      2.3754386E-37
   1.962000      5.1122426E-37
   1.968000      7.5530579E-37
   1.974000      9.0849493E-37
   1.980000      9.3717765E-37
   1.986000      8.2631687E-37
   1.992000      5.5128221E-37
   1.998000      1.3342229E-37
   2.004000     -3.7773173E-37
   2.010000     -8.8886043E-37
   2.016000     -1.3263179E-36
   2.022000     -1.6737604E-36
   2.028000     -1.9061171E-36
   2.034000     -1.8823554E-36
   2.040000     -1.6028293E-36
   2.046000     -1.0602955E-36
   2.052000     -2.4938433E-37
   2.058000      6.9466410E-37
   2.064000      1.6677201E-36
   2.070000      2.5769166E-36
   2.076000      3.2793659E-36
   2.082000      3.6541832E-36
   2.088000      3.5922050E-36
   2.094000      2.7940621E-36
   2.100000      1.1831217E-36
   2.106000     -1.2611539E-36
   2.112000     -4.3415518E-36
   2.118000     -7.7199479E-36
   2.124000     -1.0782741E-35
   2.130000     -1.2956462E-35
   2.136000     -1.3672014E-35
   2.142000     -1.2603867E-35
   2.148000     -9.4206861E-36
   2.154000     -3.9174910E-36
   2.160000      3.8857625E-36
   2.166000      1.3649029E-35
   2.172000      2.4616924E-35
   2.178000      3.5600552E-35
   2.184000      4.5009484E-35
   2.190000      5.0951923E-35
   2.196000      5.1616944E-35
   2.202000      4.5329895E-35
   2.208000      3.0898414E-35
   2.214000      7.9824683E-36
   2.220000     -2.2690940E-35
   2.226000     -5.9107960E-35
   2.232000     -9.8017816E-35
   2.238000     -1.3474950E-34
   2.244000     -1.6375115E-34
   2.250000     -1.7901515E-34
   2.256000     -1.7475465E-34
   2.262000     -1.4620982E-34
   2.268000     -9.0534434E-35
   2.274000     -7.7333516E-36
   2.280000      9.8640575E-35
   2.286000      2.2099721E-34
   2.292000      3.4758406E-34
   2.298000      4.6313839E-34
   2.304000      5.4975681E-34
   2.310000      5.8862783E-34
   2.316000      5.6225920E-34
   2.322000      4.5708611E-34
   2.328000      2.6621315E-34
   2.334000     -8.0357250E-36
   2.340000     -3.5213265E-34
   2.346000     -7.4030274E-34
   2.352000     -1.1347837E-33
   2.358000     -1.4876474E-33
   2.364000     -1.7443320E-33
   2.370000     -1.8488655E-33
   2.376000     -1.7505313E-33
   2.382000     -1.4114920E-33
   2.388000     -8.1462613E-34
   2.394000      2.9369709E-35
   2.400000      1.0766972E-33
   2.406000      2.2480810E-33
   2.412000      3.4302538E-33
   2.418000      4.4819711E-33
   2.424000      5.2448104E-33
   2.430000      5.5584922E-33
   2.436000      5.2798659E-33
   2.442000      4.3040884E-33
   2.448000      2.5859313E-33
   2.454000      1.5865689E-34
   2.460000     -2.8523482E-33
   2.466000     -6.2239965E-33
   2.472000     -9.6403746E-33
   2.478000     -1.2709701E-32
   2.484000     -1.4993895E-32
   2.490000     -1.6049872E-32
   2.496000     -1.5480235E-32
   2.502000     -1.2989411E-32
   2.508000     -8.4399466E-33
   2.514000     -1.9024645E-33
   2.520000      6.3078268E-33
   2.526000      1.5615188E-32
   2.532000      2.5194121E-32
   2.538000      3.4011172E-32
   2.544000      4.0899286E-32
   2.550000      4.4662670E-32
   2.556000      4.4206378E-32
   2.562000      3.8680808E-32
   2.568000      2.7627932E-32
   2.574000      1.1113215E-32
   2.580000     -1.0174168E-32
   2.586000     -3.4870335E-32
   2.592000     -6.0950422E-32
   2.598000     -8.5818282E-32
   2.604000     -1.0647732E-31
   2.610000     -1.1977957E-31
   2.616000     -1.2274063E-31
   2.622000     -1.1289906E-31
   2.628000     -8.8689515E-32
   2.634000     -4.9791919E-32
   2.640000      2.5854335E-33
   2.646000      6.5532100E-32
   2.652000      1.3441077E-31
   2.658000      2.0301307E-31
   2.664000      2.6391409E-31
   2.670000      3.0902592E-31
   2.676000      3.3032957E-31
   2.682000      3.2074170E-31
   2.688000      2.7505061E-31
   2.694000      1.9083563E-31
   2.700000      6.9270895E-32
   2.706000     -8.4293848E-32
   2.712000     -2.6007808E-31
   2.718000     -4.4403044E-31
   2.724000     -6.1846548E-31
   2.730000     -7.6320217E-31
   2.736000     -8.5718073E-31
   2.742000     -8.8048147E-31
   2.748000     -8.1661386E-31
   2.754000     -6.5489268E-31
   2.760000     -3.9267267E-31
   2.766000     -3.7186473E-32
   2.772000      3.9327939E-31
   2.778000      8.6911764E-31
   2.784000      1.3502435E-30
   2.790000      1.7881731E-30
   2.796000      2.1293578E-30
   2.802000      2.3196747E-30
   2.808000      2.3098346E-30
   2.814000      2.0613397E-30
   2.820000      1.5524926E-30
   2.826000      7.8386143E-31
   2.832000     -2.1744946E-31
   2.838000     -1.3953893E-30
   2.844000     -2.6650056E-30
   2.850000     -3.9154205E-30
   2.856000     -5.0159916E-30
   2.862000     -5.8256590E-30
   2.868000     -6.2051435E-30
   2.874000     -6.0313332E-30
   2.880000     -5.2128299E-30
   2.886000     -3.7053403E-30
   2.892000     -1.5253250E-30
   2.898000      1.2397894E-30
   2.904000      4.4265352E-30
   2.910000      7.7969762E-30
   2.916000      1.1048056E-29
   2.922000      1.3829308E-29
   2.928000      1.5768767E-29
   2.934000      1.6506092E-29
   2.940000      1.5730996E-29
   2.946000      1.3224177E-29
   2.952000      8.8971388E-30
   2.958000      2.8266757E-30
   2.964000     -4.7205021E-30
   2.970000     -1.3277424E-29
   2.976000     -2.2184652E-29
   2.982000     -3.0618940E-29
   2.988000     -3.7643911E-29
   2.994000     -4.2281923E-29
   3.000000     -4.3603993E-29
   3.006000     -4.0832255E-29
   3.012000     -3.3447153E-29
   3.018000     -2.1289535E-29
   3.024000     -4.6464000E-30
   3.030000      1.5691534E-29
   3.036000      3.8411782E-29
   3.042000      6.1710954E-29
   3.048000      8.3380874E-29
   3.054000      1.0095172E-28
   3.060000      1.1188862E-28
   3.066000      1.1383205E-28
   3.072000      1.0486649E-28
   3.078000      8.3795689E-29
   3.084000      5.0398695E-29
   3.090000      5.6371285E-30
   3.096000     -4.8216186E-29
   3.102000     -1.0755521E-28
   3.108000     -1.6754782E-28
   3.114000     -2.2238561E-28
   3.120000     -2.6567799E-28
   3.126000     -2.9097771E-28
   3.132000     -2.9241021E-28
   3.138000     -2.6536250E-28
   3.144000     -2.0717488E-28
   3.150000     -1.1776694E-28
   3.156000     -1.2361041E-31
   3.162000      1.3943297E-28
   3.168000      2.9125258E-28
   3.174000      4.4269849E-28
   3.180000      5.7884783E-28
   3.186000      6.8354701E-28
   3.192000      7.4078151E-28
   3.198000      7.3628008E-28
   3.204000      6.5923619E-28
   3.210000      5.0399718E-28
   3.216000      2.7154782E-28
   3.222000     -2.9395017E-29
   3.228000     -3.8185437E-28
   3.234000     -7.6078441E-28
   3.240000     -1.1340894E-27
   3.246000     -1.4645159E-27
   3.252000     -1.7123853E-27
   3.258000     -1.8390439E-27
   3.264000     -1.8108154E-27
   3.270000     -1.6031554E-27
   3.276000     -1.2046345E-27
   3.282000     -6.2032701E-28
   3.288000      1.2582684E-28
   3.294000      9.9009507E-28
   3.300000      1.9097957E-27
   3.306000      2.8061290E-27
   3.312000      3.5890544E-27
   3.318000      4.1640836E-27
   3.324000      4.4406483E-27
   3.330000      4.3414995E-27
   3.336000      3.8123868E-27
   3.342000      2.8311344E-27
   3.348000      1.4151286E-27
   3.354000     -3.7376961E-28
   3.360000     -2.4277915E-27
   3.366000     -4.5960080E-27
   3.372000     -6.6916759E-27
   3.378000     -8.5042172E-27
   3.384000     -9.8154226E-27
   3.390000     -1.0419008E-26
   3.396000     -1.0142179E-26
   3.402000     -8.8674753E-27
   3.408000     -6.5528349E-27
   3.414000     -3.2476830E-27
   3.420000      8.9713206E-28
   3.426000      5.6274799E-27
   3.432000      1.0593615E-26
   3.438000      1.5368132E-26
   3.444000      1.9474064E-26
   3.450000      2.2422079E-26
   3.456000      2.3754579E-26
   3.462000      2.3093615E-26
   3.468000      2.0188695E-26
   3.474000      1.4959910E-26
   3.480000      7.5316272E-27
   3.486000     -1.7478920E-27
   3.492000     -1.2304906E-26
   3.498000     -2.3359527E-26
   3.504000     -3.3967247E-26
   3.510000     -4.3082051E-26
   3.516000     -4.9638354E-26
   3.522000     -5.2646857E-26
   3.528000     -5.1297384E-26
   3.534000     -4.5060225E-26
   3.540000     -3.3776263E-26
   3.546000     -1.7725994E-26
   3.552000      2.3320456E-27
   3.558000      2.5161407E-26
   3.564000      4.9091920E-26
   3.570000      7.2110182E-26
   3.576000      9.1994512E-26
   3.582000      1.0648814E-25
   3.588000      1.1350004E-25
   3.594000      1.1131890E-25
   3.600000      9.8822196E-26
   3.606000      7.5660864E-26
   3.612000      4.2399157E-26
   3.618000      5.9087064E-28
   3.624000     -4.7223787E-26
   3.630000     -9.7611208E-26
   3.636000     -1.4643107E-25
   3.642000     -1.8911227E-25
   3.648000     -2.2100500E-25
   3.654000     -2.3778721E-25
   3.660000     -2.3589566E-25
   3.666000     -2.1294600E-25
   3.672000     -1.6810260E-25
   3.678000     -1.0235809E-25
   3.684000     -1.8686298E-26
   3.690000      7.7961983E-26
   3.696000      1.8083973E-25
   3.702000      2.8176753E-25
   3.708000      3.7167090E-25
   3.714000      4.4126493E-25
   3.720000      4.8184408E-25
   3.726000      4.8611936E-25
   3.732000      4.4903531E-25
   3.738000      3.6849110E-25
   3.744000      2.4589223E-25
   3.750000      8.6461725E-26
   3.756000     -1.0074415E-25
   3.762000     -3.0315298E-25
   3.768000     -5.0533843E-25
   3.774000     -6.9000939E-25
   3.780000     -8.3927878E-25
   3.786000     -9.3613325E-25
   3.792000     -9.6599854E-25
   3.798000     -9.1827541E-25
   3.804000     -7.8771011E-25
   3.810000     -5.7546121E-25
   3.816000     -2.8973658E-25
   3.822000      5.4101831E-26
   3.828000      4.3403497E-25
   3.834000      8.2250740E-25
   3.840000      1.1881455E-24
   3.846000      1.4979864E-24
   3.852000      1.7200830E-24
   3.858000      1.8262998E-24
   3.864000      1.7950810E-24
   3.870000      1.6139509E-24
   3.876000      1.2815095E-24
   3.882000      8.0870066E-25
   3.888000      2.1917359E-25
   3.894000     -4.5138340E-25
   3.900000     -1.1569832E-24
   3.906000     -1.8441113E-24
   3.912000     -2.4553948E-24
   3.918000     -2.9339427E-24
   3.924000     -3.2280575E-24
   3.930000     -3.2959575E-24
   3.936000     -3.1101176E-24
   3.942000     -2.6608304E-24
   3.948000     -1.9586296E-24
   3.954000     -1.0352683E-24
   3.960000      5.6953594E-26
   3.966000      1.2475991E-24
   3.972000      2.4521901E-24
   3.978000      3.5777919E-24
   3.984000      4.5297462E-24
   3.990000      5.2190840E-24
   3.996000      5.5700660E-24
   4.002000      5.5272399E-24
   4.008000      5.0614018E-24
   4.014000      4.1738966E-24
   4.020000      2.8987889E-24
   4.026000      1.3025773E-24
   4.032000     -5.1869611E-25
   4.038000     -2.4448746E-24
   4.044000     -4.3393850E-24
   4.050000     -6.0587184E-24
   4.056000     -7.4630312E-24
   4.062000     -8.4270847E-24
   4.068000     -8.8506470E-24
   4.074000     -8.6675193E-24
   4.080000     -7.8523782E-24
   4.086000     -6.4248066E-24
   4.092000     -4.4500634E-24
   4.098000     -2.0363835E-24
   4.104000      6.7109018E-25
   4.110000      3.4994185E-24
   4.116000      6.2593742E-24
   4.122000      8.7585246E-24
   4.128000      1.0814903E-23
   4.134000      1.2270182E-23
   4.140000      1.3001344E-23
   4.146000      1.2929888E-23
   4.152000      1.2027851E-23
   4.158000      1.0320204E-23
   4.164000      7.8834389E-24
   4.170000      4.8405550E-24
   4.176000      1.3529291E-24
   4.182000     -2.3901825E-24
   4.188000     -6.1835718E-24
   4.194000     -9.8184058E-24
   4.200000     -1.3093942E-23
   4.206000     -1.5827740E-23
   4.212000     -1.7863675E-23
   4.218000     -1.9077422E-23
   4.224000     -1.9379331E-23
   4.230000     -1.8715040E-23
   4.236000     -1.7064428E-23
   4.242000     -1.4439764E-23
   4.248000     -1.0883930E-23
   4.254000     -6.4695619E-24
   4.260000     -1.2997799E-24
   4.266000      4.4893068E-24
   4.272000      1.0724417E-23
   4.278000      1.7189937E-23
   4.284000      2.3622921E-23
   4.290000      2.9709818E-23
   4.296000      3.5086779E-23
   4.302000      3.9345476E-23
   4.308000      4.2046135E-23
   4.314000      4.2739042E-23
   4.320000      4.0995075E-23
   4.326000      3.6444629E-23
   4.332000      2.8823245E-23
   4.338000      1.8021004E-23
   4.344000      4.1314318E-24
   4.350000     -1.2505157E-23
   4.356000     -3.1269746E-23
   4.362000     -5.1249949E-23
   4.368000     -7.1248194E-23
   4.374000     -8.9817090E-23
   4.380000     -1.0532472E-22
   4.386000     -1.1605029E-22
   4.392000     -1.2030759E-22
   4.398000     -1.1659094E-22
   4.404000     -1.0373472E-22
   4.410000     -8.1074750E-23
   4.416000     -4.8597694E-23
   4.422000     -7.0626685E-24
   4.428000      4.1920507E-23
   4.434000      9.5871143E-23
   4.440000      1.5148771E-22
   4.446000      2.0477577E-22
   4.452000      2.5125606E-22
   4.458000      2.8624824E-22
   4.464000      3.0521872E-22
   4.470000      3.0417247E-22
   4.476000      2.8006296E-22
   4.482000      2.3118774E-22
   4.488000      1.5753398E-22
   4.494000      6.1037481E-23
   4.500000     -5.4280288E-23
   4.506000     -1.8232546E-22
   4.512000     -3.1511691E-22
   4.518000     -4.4315136E-22
   4.524000     -5.5594398E-22
   4.530000     -6.4272393E-22
   4.536000     -6.9324869E-22
   4.542000     -6.9868570E-22
   4.548000     -6.5249975E-22
   4.554000     -5.5127332E-22
   4.560000     -3.9538675E-22
   4.566000     -1.8948392E-22
   4.572000      5.7339156E-23
   4.578000      3.3167398E-22
   4.584000      6.1629631E-22
   4.590000      8.9102528E-22
   4.596000      1.1339206E-21
   4.602000      1.3227639E-21
   4.608000      1.4367396E-21
   4.614000      1.4582086E-21
   4.620000      1.3744426E-21
   4.626000      1.1791811E-21
   4.632000      8.7386694E-22
   4.638000      4.6842863E-22
   4.644000     -1.8504850E-23
   4.650000     -5.6003525E-22
   4.656000     -1.1221132E-21
   4.662000     -1.6653313E-21
   4.668000     -2.1473265E-21
   4.674000     -2.5256712E-21
   4.680000     -2.7610780E-21
   4.686000     -2.8207055E-21
   4.692000     -2.6813165E-21
   4.698000     -2.3320295E-21
   4.704000     -1.7764138E-21
   4.710000     -1.0336967E-21
   4.716000     -1.3890674E-22
   4.722000      8.5816535E-22
   4.728000      1.8952206E-21
   4.734000      2.9008685E-21
   4.740000      3.7990499E-21
   4.746000      4.5142255E-21
   4.752000      4.9770032E-21
   4.758000      5.1298195E-21
   4.764000      4.9322453E-21
   4.770000      4.3654937E-21
   4.776000      3.4357128E-21
   4.782000      2.1757316E-21
   4.788000      6.4498393E-22
   4.794000     -1.0725143E-21
   4.800000     -2.8721605E-21
   4.806000     -4.6345811E-21
   4.812000     -6.2329861E-21
   4.818000     -7.5416439E-21
   4.824000     -8.4449316E-21
   4.830000     -8.8463372E-21
   4.836000     -8.6767571E-21
   4.842000     -7.9014255E-21
   4.848000     -6.5248907E-21
   4.854000     -4.5935266E-21
   4.860000     -2.1952444E-21
   4.866000      5.4375882E-22
   4.872000      3.4651682E-21
   4.878000      6.3873615E-21
   4.884000      9.1163882E-21
   4.890000      1.1458468E-20
   4.896000      1.3233163E-20
   4.902000      1.4286377E-20
   4.908000      1.4502181E-20
   4.914000      1.3812609E-20
   4.920000      1.2204629E-20
   4.926000      9.7236535E-21
   4.932000      6.4732461E-21
   4.938000      2.6108767E-21
   4.944000     -1.6600868E-21
   4.950000     -6.1017038E-21
   4.956000     -1.0455408E-20
   4.962000     -1.4457640E-20
   4.968000     -1.7856141E-20
   4.974000     -2.0425739E-20
   4.980000     -2.1982648E-20
   4.986000     -2.2396130E-20
   4.992000     -2.1596841E-20
   4.998000     -1.9581246E-20
   5.004000     -1.6411911E-20
   5.010000     -1.2213734E-20
   5.016000     -7.1665183E-21
   5.022000     -1.4945549E-21
   5.028000      4.5458785E-21
   5.034000      1.0680052E-20
   5.040000      1.6628342E-20
   5.046000      2.2118803E-20
   5.052000      2.6897960E-20
   5.058000      3.0739227E-20
   5.064000      3.3448848E-20
   5.070000      3.4869372E-20
   5.076000      3.4881118E-20
   5.082000      3.3402426E-20
   5.088000      3.0389443E-20
   5.094000      2.5836424E-20
   5.100000      1.9777451E-20
   5.106000      1.2290088E-20
   5.112000      3.5012823E-21
   5.118000     -6.4047625E-21
   5.124000     -1.7177494E-20
   5.130000     -2.8490844E-20
   5.136000     -3.9935967E-20
   5.142000     -5.1017647E-20
   5.148000     -6.1156972E-20
   5.154000     -6.9701928E-20
   5.160000     -7.5948195E-20
   5.166000     -7.9170975E-20
   5.172000     -7.8668230E-20
   5.178000     -7.3814380E-20
   5.184000     -6.4122356E-20
   5.190000     -4.9310382E-20
   5.196000     -2.9368767E-20
   5.202000     -4.6208349E-21
   5.208000      2.4228707E-20
   5.214000      5.6065022E-20
   5.220000      8.9360451E-20
   5.226000      1.2220383E-19
   5.232000      1.5236579E-19
   5.238000      1.7740203E-19
   5.244000      1.9479327E-19
   5.250000      2.0211760E-19
   5.256000      1.9724769E-19
   5.262000      1.7856096E-19
   5.268000      1.4514874E-19
   5.274000      9.7007309E-20
   5.280000      3.5192289E-20
   5.286000     -3.8081790E-20
   5.292000     -1.1941377E-19
   5.298000     -2.0427449E-19
   5.304000     -2.8716061E-19
   5.310000     -3.6184775E-19
   5.316000     -4.2173860E-19
   5.322000     -4.6029427E-19
   5.328000     -4.7152862E-19
   5.334000     -4.5053793E-19
   5.340000     -3.9402986E-19
   5.346000     -3.0081312E-19
   5.352000     -1.7220308E-19
   5.358000     -1.2301544E-20
   5.364000      1.7188851E-19
   5.370000      3.7054703E-19
   5.376000      5.7134063E-19
   5.382000      7.5995549E-19
   5.388000      9.2085272E-19
   5.394000      1.0382208E-18
   5.400000      1.0970845E-18
   5.406000      1.0845105E-18
   5.412000      9.9083488E-19
   5.418000      8.1082782E-19
   5.424000      5.4470164E-19
   5.430000      1.9886902E-19
   5.436000     -2.1363789E-19
   5.442000     -6.7316237E-19
   5.448000     -1.1538881E-18
   5.454000     -1.6248046E-18
   5.460000     -2.0511699E-18
   5.466000     -2.3964328E-18
   5.472000     -2.6245403E-18
   5.478000     -2.7025182E-18
   5.484000     -2.6031816E-18
   5.490000     -2.3077994E-18
   5.496000     -1.8085249E-18
   5.502000     -1.1103969E-18
   5.508000     -2.3271080E-19
   5.514000      7.9040334E-19
   5.520000      1.9103389E-18
   5.526000      3.0653990E-18
   5.532000      4.1832360E-18
   5.538000      5.1843169E-18
   5.544000      5.9862949E-18
   5.550000      6.5091107E-18
   5.556000      6.6805629E-18
   5.562000      6.4420384E-18
   5.568000      5.7540342E-18
   5.574000      4.6010954E-18
   5.580000      2.9957626E-18
   5.586000      9.8117641E-19
   5.592000     -1.3679978E-18
   5.598000     -3.9465589E-18
   5.604000     -6.6218310E-18
   5.610000     -9.2388266E-18
   5.616000     -1.1627409E-17
   5.622000     -1.3611216E-17
   5.628000     -1.5017977E-17
   5.634000     -1.5690706E-17
   5.640000     -1.5499169E-17
   5.646000     -1.4350929E-17
   5.652000     -1.2201236E-17
   5.658000     -9.0610407E-18
   5.664000     -5.0024136E-18
   5.670000     -1.6079445E-19
   5.676000      5.2663943E-18
   5.682000      1.1025056E-17
   5.688000      1.6813702E-17
   5.694000      2.2296549E-17
   5.700000      2.7119987E-17
   5.706000      3.0931747E-17
   5.712000      3.3401891E-17
   5.718000      3.4244477E-17
   5.724000      3.3238728E-17
   5.730000      3.0248347E-17
   5.736000      2.5237664E-17