 -5.9999999E-02  0.0000000E+00
 -5.4000001E-02  0.0000000E+00
 -4.8000000E-02  0.0000000E+00
 -4.1999999E-02  0.0000000E+00
 -3.5999998E-02  0.0000000E+00
 -2.9999999E-02  0.0000000E+00
 -2.4000000E-02  0.0000000E+00
 -1.7999999E-02  0.0000000E+00
 -1.2000000E-02  0.0000000E+00
 -6.0000001E-03  0.0000000E+00
  3.4694470E-18  0.0000000E+00
  6.0000001E-03  0.0000000E+00
  1.2000000E-02  0.0000000E+00
  1.7999999E-02  0.0000000E+00
  2.4000000E-02  0.0000000E+00
  2.9999999E-02  0.0000000E+00
  3.5999998E-02  0.0000000E+00
  4.1999999E-02  0.0000000E+00
  4.8000000E-02  0.0000000E+00
  5.4000001E-02  0.0000000E+00
  5.9999999E-02  0.0000000E+00
  6.6000000E-02  0.0000000E+00
  7.1999997E-02  0.0000000E+00
  7.8000002E-02  0.0000000E+00
  8.3999999E-02  0.0000000E+00
  9.0000004E-02  0.0000000E+00
  9.6000001E-02  0.0000000E+00
  0.1020000      0.0000000E+00
  0.1080000      0.0000000E+00
  0.1140000      0.0000000E+00
  0.1200000      0.0000000E+00
  0.1260000      0.0000000E+00
  0.1320000      0.0000000E+00
  0.1380000      0.0000000E+00
  0.1440000      0.0000000E+00
  0.1500000      0.0000000E+00
  0.1560000      0.0000000E+00
  0.1620000      0.0000000E+00
  0.1680000      0.0000000E+00
  0.1740000      0.0000000E+00
  0.1800000      0.0000000E+00
  0.1860000      0.0000000E+00
  0.1920000      0.0000000E+00
  0.1980000      0.0000000E+00
  0.2040000      0.0000000E+00
  0.2100000      0.0000000E+00
  0.2160000      0.0000000E+00
  0.2220000      0.0000000E+00
  0.2280000      0.0000000E+00
  0.2340000      0.0000000E+00
  0.2400000      0.0000000E+00
  0.2460000      0.0000000E+00
  0.2520000      0.0000000E+00
  0.2580000      0.0000000E+00
  0.2640000      0.0000000E+00
  0.2700000      0.0000000E+00
  0.2760000      0.0000000E+00
  0.2820000      0.0000000E+00
  0.2880000      0.0000000E+00
  0.2940000      0.0000000E+00
  0.3000000      0.0000000E+00
  0.3060000      0.0000000E+00
  0.3120000      0.0000000E+00
  0.3180000      0.0000000E+00
  0.3240000      0.0000000E+00
  0.3300000      0.0000000E+00
  0.3360000      0.0000000E+00
  0.3420000      0.0000000E+00
  0.3480000      0.0000000E+00
  0.3540000      0.0000000E+00
  0.3600000      0.0000000E+00
  0.3660000      0.0000000E+00
  0.3720000      0.0000000E+00
  0.3780000      0.0000000E+00
  0.3840000      0.0000000E+00
  0.3900000      0.0000000E+00
  0.3960000      0.0000000E+00
  0.4020000      0.0000000E+00
  0.4080000      0.0000000E+00
  0.4140000      0.0000000E+00
  0.4200000      0.0000000E+00
  0.4260000      0.0000000E+00
  0.4320000      0.0000000E+00
  0.4380000      0.0000000E+00
  0.4440000      0.0000000E+00
  0.4500000      0.0000000E+00
  0.4560000      0.0000000E+00
  0.4620000      0.0000000E+00
  0.4680000      0.0000000E+00
  0.4740000      0.0000000E+00
  0.4800000      0.0000000E+00
  0.4860000      0.0000000E+00
  0.4920000      0.0000000E+00
  0.4980000      0.0000000E+00
  0.5040000      0.0000000E+00
  0.5100000      0.0000000E+00
  0.5160000      0.0000000E+00
  0.5220000      0.0000000E+00
  0.5280000      0.0000000E+00
  0.5340000      0.0000000E+00
  0.5400000      0.0000000E+00
  0.5460000      0.0000000E+00
  0.5520000      0.0000000E+00
  0.5580000      0.0000000E+00
  0.5640000      0.0000000E+00
  0.5700000      0.0000000E+00
  0.5760000      0.0000000E+00
  0.5820000      0.0000000E+00
  0.5880000      0.0000000E+00
  0.5940000      0.0000000E+00
  0.6000000      0.0000000E+00
  0.6060000      0.0000000E+00
  0.6120000      0.0000000E+00
  0.6180000      0.0000000E+00
  0.6240000      0.0000000E+00
  0.6300000      0.0000000E+00
  0.6360000      0.0000000E+00
  0.6420000      0.0000000E+00
  0.6480000      0.0000000E+00
  0.6540000      0.0000000E+00
  0.6600000      0.0000000E+00
  0.6660000      0.0000000E+00
  0.6720000      0.0000000E+00
  0.6780000      0.0000000E+00
  0.6840000      0.0000000E+00
  0.6900000      0.0000000E+00
  0.6960000      0.0000000E+00
  0.7020000      0.0000000E+00
  0.7080000      0.0000000E+00
  0.7140000      0.0000000E+00
  0.7200000      0.0000000E+00
  0.7260000      0.0000000E+00
  0.7320000      0.0000000E+00
  0.7380000      0.0000000E+00
  0.7440000      0.0000000E+00
  0.7500000      0.0000000E+00
  0.7560000      0.0000000E+00
  0.7620000      0.0000000E+00
  0.7680000      0.0000000E+00
  0.7740000      0.0000000E+00
  0.7800000      0.0000000E+00
  0.7860000      0.0000000E+00
  0.7920000      0.0000000E+00
  0.7980000      0.0000000E+00
  0.8040000      0.0000000E+00
  0.8100000      0.0000000E+00
  0.8160000      0.0000000E+00
  0.8220000      0.0000000E+00
  0.8280000      0.0000000E+00
  0.8340000      0.0000000E+00
  0.8400000      0.0000000E+00
  0.8460000      0.0000000E+00
  0.8520000      0.0000000E+00
  0.8580000      0.0000000E+00
  0.8640000      0.0000000E+00
  0.8700000      0.0000000E+00
  0.8760000      0.0000000E+00
  0.8820000      0.0000000E+00
  0.8880000      0.0000000E+00
  0.8940000      0.0000000E+00
  0.9000000      0.0000000E+00
  0.9060000      0.0000000E+00
  0.9120000      0.0000000E+00
  0.9180000      0.0000000E+00
  0.9240000      0.0000000E+00
  0.9300000      0.0000000E+00
  0.9360000      0.0000000E+00
  0.9420000      0.0000000E+00
  0.9480000      0.0000000E+00
  0.9540000      0.0000000E+00
  0.9600000      0.0000000E+00
  0.9660000      0.0000000E+00
  0.9720000      0.0000000E+00
  0.9780000      0.0000000E+00
  0.9840000      0.0000000E+00
  0.9900000      0.0000000E+00
  0.9960000      0.0000000E+00
   1.002000      0.0000000E+00
   1.008000      0.0000000E+00
   1.014000      0.0000000E+00
   1.020000      0.0000000E+00
   1.026000      0.0000000E+00
   1.032000      0.0000000E+00
   1.038000      0.0000000E+00
   1.044000      0.0000000E+00
   1.050000      0.0000000E+00
   1.056000      0.0000000E+00
   1.062000      0.0000000E+00
   1.068000      0.0000000E+00
   1.074000      0.0000000E+00
   1.080000      0.0000000E+00
   1.086000      0.0000000E+00
   1.092000      0.0000000E+00
   1.098000      0.0000000E+00
   1.104000      0.0000000E+00
   1.110000      0.0000000E+00
   1.116000      0.0000000E+00
   1.122000      0.0000000E+00
   1.128000      0.0000000E+00
   1.134000      0.0000000E+00
   1.140000      0.0000000E+00
   1.146000      0.0000000E+00
   1.152000      0.0000000E+00
   1.158000      0.0000000E+00
   1.164000      0.0000000E+00
   1.170000      0.0000000E+00
   1.176000      0.0000000E+00
   1.182000      0.0000000E+00
   1.188000      0.0000000E+00
   1.194000      0.0000000E+00
   1.200000      0.0000000E+00
   1.206000      0.0000000E+00
   1.212000      0.0000000E+00
   1.218000      0.0000000E+00
   1.224000      0.0000000E+00
   1.230000      0.0000000E+00
   1.236000      0.0000000E+00
   1.242000      0.0000000E+00
   1.248000      0.0000000E+00
   1.254000      0.0000000E+00
   1.260000      0.0000000E+00
   1.266000      0.0000000E+00
   1.272000      0.0000000E+00
   1.278000      0.0000000E+00
   1.284000      0.0000000E+00
   1.290000      0.0000000E+00
   1.296000      0.0000000E+00
   1.302000      0.0000000E+00
   1.308000      0.0000000E+00
   1.314000      0.0000000E+00
   1.320000      0.0000000E+00
   1.326000      0.0000000E+00
   1.332000      0.0000000E+00
   1.338000      0.0000000E+00
   1.344000      0.0000000E+00
   1.350000      0.0000000E+00
   1.356000      0.0000000E+00
   1.362000      0.0000000E+00
   1.368000      0.0000000E+00
   1.374000      0.0000000E+00
   1.380000      0.0000000E+00
   1.386000      0.0000000E+00
   1.392000      0.0000000E+00
   1.398000      0.0000000E+00
   1.404000      0.0000000E+00
   1.410000      0.0000000E+00
   1.416000      0.0000000E+00
   1.422000      0.0000000E+00
   1.428000      0.0000000E+00
   1.434000      0.0000000E+00
   1.440000      0.0000000E+00
   1.446000      0.0000000E+00
   1.452000      0.0000000E+00
   1.458000      0.0000000E+00
   1.464000      0.0000000E+00
   1.470000      0.0000000E+00
   1.476000      0.0000000E+00
   1.482000      0.0000000E+00
   1.488000      0.0000000E+00
   1.494000      0.0000000E+00
   1.500000      0.0000000E+00
   1.506000      0.0000000E+00
   1.512000      0.0000000E+00
   1.518000      0.0000000E+00
   1.524000      0.0000000E+00
   1.530000      0.0000000E+00
   1.536000      0.0000000E+00
   1.542000      0.0000000E+00
   1.548000      0.0000000E+00
   1.554000      0.0000000E+00
   1.560000      0.0000000E+00
   1.566000      0.0000000E+00
   1.572000      0.0000000E+00
   1.578000      0.0000000E+00
   1.584000      0.0000000E+00
   1.590000      0.0000000E+00
   1.596000      0.0000000E+00
   1.602000      0.0000000E+00
   1.608000      0.0000000E+00
   1.614000      0.0000000E+00
   1.620000      0.0000000E+00
   1.626000      0.0000000E+00
   1.632000      0.0000000E+00
   1.638000      0.0000000E+00
   1.644000      0.0000000E+00
   1.650000      0.0000000E+00
   1.656000      0.0000000E+00
   1.662000      0.0000000E+00
   1.668000      0.0000000E+00
   1.674000      0.0000000E+00
   1.680000      0.0000000E+00
   1.686000      0.0000000E+00
   1.692000      0.0000000E+00
   1.698000      0.0000000E+00
   1.704000      0.0000000E+00
   1.710000      0.0000000E+00
   1.716000      0.0000000E+00
   1.722000      0.0000000E+00
   1.728000      0.0000000E+00
   1.734000      0.0000000E+00
   1.740000      0.0000000E+00
   1.746000      0.0000000E+00
   1.752000      0.0000000E+00
   1.758000      0.0000000E+00
   1.764000      0.0000000E+00
   1.770000      0.0000000E+00
   1.776000      0.0000000E+00
   1.782000      0.0000000E+00
   1.788000      0.0000000E+00
   1.794000      0.0000000E+00
   1.800000      0.0000000E+00
   1.806000      0.0000000E+00
   1.812000      0.0000000E+00
   1.818000      0.0000000E+00
   1.824000      0.0000000E+00
   1.830000      0.0000000E+00
   1.836000      0.0000000E+00
   1.842000      0.0000000E+00
   1.848000      0.0000000E+00
   1.854000      0.0000000E+00
   1.860000      0.0000000E+00
   1.866000      0.0000000E+00
   1.872000      0.0000000E+00
   1.878000      0.0000000E+00
   1.884000      0.0000000E+00
   1.890000      0.0000000E+00
   1.896000      0.0000000E+00
   1.902000      0.0000000E+00
   1.908000      0.0000000E+00
   1.914000      0.0000000E+00
   1.920000      0.0000000E+00
   1.926000      0.0000000E+00
   1.932000      0.0000000E+00
   1.938000      0.0000000E+00
   1.944000      0.0000000E+00
   1.950000      0.0000000E+00
   1.956000      0.0000000E+00
   1.962000      0.0000000E+00
   1.968000      0.0000000E+00
   1.974000      0.0000000E+00
   1.980000      0.0000000E+00
   1.986000      0.0000000E+00
   1.992000      0.0000000E+00
   1.998000      0.0000000E+00
   2.004000      0.0000000E+00
   2.010000      0.0000000E+00
   2.016000      0.0000000E+00
   2.022000      0.0000000E+00
   2.028000      0.0000000E+00
   2.034000      0.0000000E+00
   2.040000      0.0000000E+00
   2.046000      0.0000000E+00
   2.052000      0.0000000E+00
   2.058000      0.0000000E+00
   2.064000      0.0000000E+00
   2.070000      0.0000000E+00
   2.076000      0.0000000E+00
   2.082000      0.0000000E+00
   2.088000      0.0000000E+00
   2.094000      0.0000000E+00
   2.100000      0.0000000E+00
   2.106000      0.0000000E+00
   2.112000      0.0000000E+00
   2.118000      0.0000000E+00
   2.124000      0.0000000E+00
   2.130000      0.0000000E+00
   2.136000      0.0000000E+00
   2.142000      0.0000000E+00
   2.148000      0.0000000E+00
   2.154000      0.0000000E+00
   2.160000      0.0000000E+00
   2.166000      0.0000000E+00
   2.172000      0.0000000E+00
   2.178000      0.0000000E+00
   2.184000      0.0000000E+00
   2.190000      0.0000000E+00
   2.196000      0.0000000E+00
   2.202000      0.0000000E+00
   2.208000      0.0000000E+00
   2.214000      0.0000000E+00
   2.220000      0.0000000E+00
   2.226000      0.0000000E+00
   2.232000      0.0000000E+00
   2.238000      0.0000000E+00
   2.244000      0.0000000E+00
   2.250000      0.0000000E+00
   2.256000      0.0000000E+00
   2.262000      0.0000000E+00
   2.268000      0.0000000E+00
   2.274000      0.0000000E+00
   2.280000      0.0000000E+00
   2.286000      0.0000000E+00
   2.292000      0.0000000E+00
   2.298000      0.0000000E+00
   2.304000      0.0000000E+00
   2.310000      0.0000000E+00
   2.316000      0.0000000E+00
   2.322000      0.0000000E+00
   2.328000      0.0000000E+00
   2.334000      0.0000000E+00
   2.340000      0.0000000E+00
   2.346000      0.0000000E+00
   2.352000      0.0000000E+00
   2.358000      0.0000000E+00
   2.364000      0.0000000E+00
   2.370000      0.0000000E+00
   2.376000      0.0000000E+00
   2.382000      0.0000000E+00
   2.388000      0.0000000E+00
   2.394000      0.0000000E+00
   2.400000      0.0000000E+00
   2.406000      0.0000000E+00
   2.412000      0.0000000E+00
   2.418000      0.0000000E+00
   2.424000      0.0000000E+00
   2.430000      0.0000000E+00
   2.436000      0.0000000E+00
   2.442000      0.0000000E+00
   2.448000      0.0000000E+00
   2.454000      0.0000000E+00
   2.460000      0.0000000E+00
   2.466000      0.0000000E+00
   2.472000      0.0000000E+00
   2.478000      0.0000000E+00
   2.484000      0.0000000E+00
   2.490000      0.0000000E+00
   2.496000      0.0000000E+00
   2.502000      0.0000000E+00
   2.508000      0.0000000E+00
   2.514000      0.0000000E+00
   2.520000      0.0000000E+00
   2.526000      0.0000000E+00
   2.532000      0.0000000E+00
   2.538000      0.0000000E+00
   2.544000      0.0000000E+00
   2.550000      0.0000000E+00
   2.556000      0.0000000E+00
   2.562000      0.0000000E+00
   2.568000      0.0000000E+00
   2.574000      0.0000000E+00
   2.580000      0.0000000E+00
   2.586000      0.0000000E+00
   2.592000      0.0000000E+00
   2.598000      0.0000000E+00
   2.604000      0.0000000E+00
   2.610000      0.0000000E+00
   2.616000      0.0000000E+00
   2.622000      0.0000000E+00
   2.628000      0.0000000E+00
   2.634000      0.0000000E+00
   2.640000      0.0000000E+00
   2.646000      0.0000000E+00
   2.652000      0.0000000E+00
   2.658000      0.0000000E+00
   2.664000      0.0000000E+00
   2.670000      0.0000000E+00
   2.676000      0.0000000E+00
   2.682000      0.0000000E+00
   2.688000      0.0000000E+00
   2.694000      0.0000000E+00
   2.700000      0.0000000E+00
   2.706000      0.0000000E+00
   2.712000      0.0000000E+00
   2.718000      0.0000000E+00
   2.724000      0.0000000E+00
   2.730000      0.0000000E+00
   2.736000      0.0000000E+00
   2.742000      0.0000000E+00
   2.748000      0.0000000E+00
   2.754000      0.0000000E+00
   2.760000      0.0000000E+00
   2.766000      0.0000000E+00
   2.772000      0.0000000E+00
   2.778000      0.0000000E+00
   2.784000      0.0000000E+00
   2.790000      0.0000000E+00
   2.796000      0.0000000E+00
   2.802000      0.0000000E+00
   2.808000      0.0000000E+00
   2.814000      0.0000000E+00
   2.820000      0.0000000E+00
   2.826000      0.0000000E+00
   2.832000      0.0000000E+00
   2.838000      0.0000000E+00
   2.844000      0.0000000E+00
   2.850000      0.0000000E+00
   2.856000      0.0000000E+00
   2.862000      0.0000000E+00
   2.868000      0.0000000E+00
   2.874000      0.0000000E+00
   2.880000      0.0000000E+00
   2.886000      0.0000000E+00
   2.892000      0.0000000E+00
   2.898000      0.0000000E+00
   2.904000      0.0000000E+00
   2.910000      0.0000000E+00
   2.916000      0.0000000E+00
   2.922000      0.0000000E+00
   2.928000      0.0000000E+00
   2.934000      0.0000000E+00
   2.940000      0.0000000E+00
   2.946000      0.0000000E+00
   2.952000      0.0000000E+00
   2.958000      0.0000000E+00
   2.964000      0.0000000E+00
   2.970000      0.0000000E+00
   2.976000      0.0000000E+00
   2.982000      0.0000000E+00
   2.988000      0.0000000E+00
   2.994000      0.0000000E+00
   3.000000      0.0000000E+00
   3.006000      0.0000000E+00
   3.012000      0.0000000E+00
   3.018000      0.0000000E+00
   3.024000      0.0000000E+00
   3.030000      0.0000000E+00
   3.036000      0.0000000E+00
   3.042000      0.0000000E+00
   3.048000      0.0000000E+00
   3.054000      0.0000000E+00
   3.060000      0.0000000E+00
   3.066000      0.0000000E+00
   3.072000      0.0000000E+00
   3.078000      0.0000000E+00
   3.084000      0.0000000E+00
   3.090000      0.0000000E+00
   3.096000      0.0000000E+00
   3.102000      0.0000000E+00
   3.108000      0.0000000E+00
   3.114000      0.0000000E+00
   3.120000      0.0000000E+00
   3.126000      0.0000000E+00
   3.132000      0.0000000E+00
   3.138000      0.0000000E+00
   3.144000      0.0000000E+00
   3.150000      0.0000000E+00
   3.156000      0.0000000E+00
   3.162000      0.0000000E+00
   3.168000      0.0000000E+00
   3.174000      0.0000000E+00
   3.180000      0.0000000E+00
   3.186000      0.0000000E+00
   3.192000      0.0000000E+00
   3.198000      0.0000000E+00
   3.204000      0.0000000E+00
   3.210000      0.0000000E+00
   3.216000      0.0000000E+00
   3.222000      0.0000000E+00
   3.228000      0.0000000E+00
   3.234000      0.0000000E+00
   3.240000      0.0000000E+00
   3.246000      0.0000000E+00
   3.252000      0.0000000E+00
   3.258000      0.0000000E+00
   3.264000      0.0000000E+00
   3.270000      0.0000000E+00
   3.276000      0.0000000E+00
   3.282000      0.0000000E+00
   3.288000      0.0000000E+00
   3.294000      0.0000000E+00
   3.300000      0.0000000E+00
   3.306000      0.0000000E+00
   3.312000      0.0000000E+00
   3.318000      0.0000000E+00
   3.324000      0.0000000E+00
   3.330000      0.0000000E+00
   3.336000      0.0000000E+00
   3.342000      0.0000000E+00
   3.348000      0.0000000E+00
   3.354000      0.0000000E+00
   3.360000      0.0000000E+00
   3.366000      0.0000000E+00
   3.372000      0.0000000E+00
   3.378000      0.0000000E+00
   3.384000      0.0000000E+00
   3.390000      0.0000000E+00
   3.396000      0.0000000E+00
   3.402000      0.0000000E+00
   3.408000      0.0000000E+00
   3.414000      0.0000000E+00
   3.420000      0.0000000E+00
   3.426000     -1.6879650E-38
   3.432000     -3.3769345E-38
   3.438000     -5.0660224E-38
   3.444000     -5.5716288E-38
   3.450000     -4.3856180E-38
   3.456000     -1.5239255E-38
   3.462000      2.4184587E-38
   3.468000      6.3607712E-38
   3.474000      9.3586082E-38
   3.480000      1.0627779E-37
   3.486000      9.8138806E-38
   3.492000      7.1910960E-38
   3.498000      3.9349148E-38
   3.504000      0.0000000E+00
   3.510000      0.0000000E+00
   3.516000     -1.6392904E-38
   3.522000      0.0000000E+00
   3.528000      0.0000000E+00
   3.534000      2.0895623E-38
   3.540000      2.7156416E-38
   3.546000      3.3345102E-38
   3.552000      3.2745464E-38
   3.558000      2.9972992E-38
   3.564000      2.0659036E-38
   3.570000      0.0000000E+00
   3.576000     -2.7307700E-38
   3.582000     -6.0267044E-38
   3.588000     -8.8522692E-38
   3.594000     -1.0700478E-37
   3.600000     -1.0387323E-37
   3.606000     -1.3565938E-38
   3.612000      9.4748089E-38
   3.618000      2.1150329E-37
   3.624000      3.1837075E-37
   3.630000      3.5104699E-37
   3.636000      2.8086342E-37
   3.642000      1.1271888E-37
   3.648000     -5.4856356E-38
   3.654000     -2.0132733E-37
   3.660000     -3.3390552E-37
   3.666000     -3.7168509E-37
   3.672000     -3.0771239E-37
   3.678000     -1.8548259E-37
   3.684000     -1.2601000E-37
   3.690000     -1.2145425E-37
   3.696000     -1.5252680E-37
   3.702000     -2.0528742E-37
   3.708000     -2.6666640E-37
   3.714000     -3.0665668E-37
   3.720000     -3.1467706E-37
   3.726000     -1.6232174E-37
   3.732000      6.5506169E-38
   3.738000      4.0930552E-37
   3.744000      8.4023587E-37
   3.750000      1.2375601E-36
   3.756000      1.3845354E-36
   3.762000      1.2281810E-36
   3.768000      5.9854587E-37
   3.774000     -4.1463807E-37
   3.780000     -1.4731627E-36
   3.786000     -2.2816457E-36
   3.792000     -2.4892176E-36
   3.798000     -2.0697192E-36
   3.804000     -9.6855481E-37
   3.810000      5.8401089E-37
   3.816000      1.8885164E-36
   3.822000      2.5768005E-36
   3.828000      2.5256700E-36
   3.834000      1.7001296E-36
   3.840000      3.9477080E-37
   3.846000     -8.6139713E-37
   3.852000     -1.7472934E-36
   3.858000     -1.8431689E-36
   3.864000     -1.0090197E-36
   3.870000      4.4546345E-37
   3.876000      1.9727072E-36
   3.882000      3.1285290E-36
   3.888000      3.6198324E-36
   3.894000      3.2459701E-36
   3.900000      2.0941749E-36
   3.906000      4.3081789E-37
   3.912000     -1.2801338E-36
   3.918000     -2.6693180E-36
   3.924000     -3.7265661E-36
   3.930000     -4.3615848E-36
   3.936000     -4.5408043E-36
   3.942000     -4.4276217E-36
   3.948000     -4.1491898E-36
   3.954000     -3.7509631E-36
   3.960000     -3.0569120E-36
   3.966000     -1.8291536E-36
   3.972000      7.5211567E-38
   3.978000      2.7607614E-36
   3.984000      6.1428749E-36
   3.990000      9.9600202E-36
   3.996000      1.3869173E-35
   4.002000      1.7398634E-35
   4.008000      2.0211647E-35
   4.014000      2.1977742E-35
   4.020000      2.2562046E-35
   4.026000      2.2024078E-35
   4.032000      2.0470822E-35
   4.038000      1.8097089E-35
   4.044000      1.5012681E-35
   4.050000      1.1146988E-35
   4.056000      6.3047959E-36
   4.062000      1.3705053E-37
   4.068000     -7.8199898E-36
   4.074000     -1.8059156E-35
   4.080000     -3.0957818E-35
   4.086000     -4.6679635E-35
   4.092000     -6.5066224E-35
   4.098000     -8.5573308E-35
   4.104000     -1.0717734E-34
   4.110000     -1.2825827E-34
   4.116000     -1.4666549E-34
   4.122000     -1.5964170E-34
   4.128000     -1.6390922E-34
   4.134000     -1.5579402E-34
   4.140000     -1.3141748E-34
   4.146000     -8.7076690E-35
   4.152000     -1.9710149E-35
   4.158000      7.2451921E-35
   4.164000      1.8917853E-34
   4.170000      3.2754744E-34
   4.176000      4.8136269E-34
   4.182000      6.4074406E-34
   4.188000      7.9209043E-34
   4.194000      9.1840134E-34
   4.200000      1.0000774E-33
   4.206000      1.0161778E-33
   4.212000      9.4609865E-34
   4.218000      7.7161589E-34
   4.224000      4.7920478E-34
   4.230000      6.2494687E-35
   4.236000     -4.7526959E-34
   4.242000     -1.1189990E-33
   4.248000     -1.8399394E-33
   4.254000     -2.5947703E-33
   4.260000     -3.3255389E-33
   4.266000     -3.9611320E-33
   4.272000     -4.4203521E-33
   4.278000     -4.6167765E-33
   4.284000     -4.4653721E-33
   4.290000     -3.8906538E-33
   4.296000     -2.8359455E-33
   4.302000     -1.2731261E-33
   4.308000      7.8795462E-34
   4.314000      3.2913184E-33
   4.320000      6.1289548E-33
   4.326000      9.1381645E-33
   4.332000      1.2103098E-32
   4.338000      1.4761248E-32
   4.344000      1.6815438E-32
   4.350000      1.7951475E-32
   4.356000      1.7861249E-32
   4.362000      1.6270401E-32
   4.368000      1.2969234E-32
   4.374000      7.8448327E-33
   4.380000      9.1186403E-34
   4.386000     -7.6608943E-33
   4.392000     -1.7531442E-32
   4.398000     -2.8176032E-32
   4.404000     -3.8894081E-32
   4.410000     -4.8828772E-32
   4.416000     -5.7004793E-32
   4.422000     -6.2383497E-32
   4.428000     -6.3934368E-32
   4.434000     -6.0720325E-32
   4.440000     -5.1992638E-32
   4.446000     -3.7289711E-32
   4.452000     -1.6532633E-32
   4.458000      9.8909217E-33
   4.464000      4.1063424E-32
   4.470000      7.5504000E-32
   4.476000      1.1117332E-31
   4.482000      1.4552386E-31
   4.488000      1.7560057E-31
   4.494000      1.9819340E-31
   4.500000      2.1003963E-31
   4.506000      2.0806972E-31
   4.512000      1.8968482E-31
   4.518000      1.5305107E-31
   4.524000      9.7389548E-32
   4.530000      2.3239191E-32
   4.536000     -6.7333445E-32
   4.542000     -1.7060367E-31
   4.548000     -2.8116200E-31
   4.554000     -3.9201225E-31
   4.560000     -4.9480939E-31
   4.566000     -5.8024385E-31
   4.572000     -6.3856902E-31
   4.578000     -6.6025731E-31
   4.584000     -6.3675875E-31
   4.590000     -5.6132258E-31
   4.596000     -4.2983211E-31
   4.602000     -2.4159294E-31
   4.608000     -7.3209952E-36
   4.614000      2.8693575E-31
   4.620000      6.0642385E-31
   4.626000      9.4090000E-31
   4.632000      1.2685078E-30
   4.638000      1.5639320E-30
   4.644000      1.7996437E-30
   4.650000      1.9475271E-30
   4.656000      1.9808334E-30
   4.662000      1.8763779E-30
   4.668000      1.6168581E-30
   4.674000      1.1931478E-30
   4.680000      6.0639663E-31
   4.686000     -1.3025265E-31
   4.692000     -9.9051517E-31
   4.698000     -1.9345660E-30
   4.704000     -2.9095464E-30
   4.710000     -3.8510967E-30
   4.716000     -4.6859738E-30
   4.722000     -5.3357539E-30
   4.728000     -5.7215346E-30
   4.734000     -5.7694737E-30
   4.740000     -5.4169059E-30
   4.746000     -4.6187028E-30
   4.752000     -3.3534668E-30
   4.758000     -1.6291020E-30
   4.764000      5.1274560E-31
   4.770000      2.9938696E-30
   4.776000      5.6987733E-30
   4.782000      8.4764367E-30
   4.788000      1.1144863E-29
   4.794000      1.3498560E-29
   4.800000      1.5318908E-29
   4.806000      1.6387204E-29
   4.812000      1.6499856E-29
   4.818000      1.5485109E-29
   4.824000      1.3220331E-29
   4.830000      9.6487864E-30
   4.836000      4.7946549E-30
   4.842000     -1.2250257E-30
   4.848000     -8.1928330E-30
   4.854000     -1.5789106E-29
   4.860000     -2.3596820E-29
   4.866000     -3.1113994E-29
   4.872000     -3.7773998E-29
   4.878000     -4.2973747E-29
   4.884000     -4.6109041E-29
   4.890000     -4.6615867E-29
   4.896000     -4.4015808E-29
   4.902000     -3.7963067E-29
   4.908000     -2.8290235E-29
   4.914000     -1.5049391E-29
   4.920000      1.4549631E-30
   4.926000      2.0644731E-29
   4.932000      4.1662198E-29
   4.938000      6.3382029E-29
   4.944000      8.4443458E-29
   4.950000      1.0330388E-28
   4.956000      1.1831367E-28
   4.962000      1.2781055E-28
   4.968000      1.3023067E-28
   4.974000      1.2423112E-28
   4.980000      1.0881767E-28
   4.986000      8.3469834E-29
   4.992000      4.8254419E-29
   4.998000      3.9178019E-30
   5.004000     -4.8052780E-29
   5.010000     -1.0540799E-28
   5.016000     -1.6516331E-28
   5.022000     -2.2368027E-28
   5.028000     -2.7680517E-28
   5.034000     -3.2006575E-28
   5.040000     -3.4892143E-28
   5.046000     -3.5905945E-28
   5.052000     -3.4672389E-28
   5.058000     -3.0906086E-28
   5.064000     -2.4445855E-28
   5.070000     -1.5285883E-28
   5.076000     -3.6013924E-29
   5.082000      1.0233793E-28
   5.088000      2.5640257E-28
   5.094000      4.1838796E-28
   5.100000      5.7870675E-28
   5.106000      7.2633275E-28
   5.112000      8.4931267E-28
   5.118000      9.3542225E-28
   5.124000      9.7294620E-28
   5.130000      9.5154970E-28
   5.136000      8.6319496E-28
   5.142000      7.0305009E-28
   5.148000      4.7032557E-28
   5.154000      1.6897157E-28
   5.160000     -1.9183371E-28
   5.166000     -5.9747094E-28
   5.172000     -1.0279988E-27
   5.178000     -1.4586510E-27
   5.184000     -1.8607366E-27
   5.190000     -2.2029461E-27
   5.196000     -2.4530398E-27
   5.202000     -2.5798639E-27
   5.208000     -2.5556091E-27
   5.214000     -2.3581966E-27
   5.220000     -1.9736514E-27
   5.226000     -1.3982978E-27
   5.232000     -6.4060354E-28
   5.238000      2.7750775E-28
   5.244000      1.3200447E-27
   5.250000      2.4371854E-27
   5.256000      3.5664802E-27
   5.262000      4.6350813E-27
   5.268000      5.5630090E-27
   5.274000      6.2673936E-27
   5.280000      6.6675502E-27
   5.286000      6.6906799E-27
   5.292000      6.2778995E-27
   5.298000      5.3902550E-27
   5.304000      4.0143017E-27
   5.310000      2.1668241E-27
   5.316000     -1.0175911E-28
   5.322000     -2.7057174E-27
   5.328000     -5.5244299E-27
   5.334000     -8.4051858E-27
   5.340000     -1.1168525E-26
   5.346000     -1.3616137E-26
   5.352000     -1.5541153E-26
   5.358000     -1.6740536E-26
   5.364000     -1.7028986E-26
   5.370000     -1.6253722E-26
   5.376000     -1.4309251E-26
   5.382000     -1.1151141E-26
   5.388000     -6.8077749E-27
   5.394000     -1.3889748E-27
   5.400000      4.9094820E-27
   5.406000      1.1806360E-26
   5.412000      1.8941136E-26
   5.418000      2.5886258E-26
   5.424000      3.2165511E-26
   5.430000      3.7278158E-26
   5.436000      4.0728044E-26
   5.442000      4.2056517E-26
   5.448000      4.0877407E-26
   5.454000      3.6912192E-26
   5.460000      3.0023001E-26
   5.466000      2.0241028E-26
   5.472000      7.7878652E-27
   5.478000     -6.9125516E-27
   5.484000     -2.3233491E-26
   5.490000     -4.0357985E-26
   5.496000     -5.7305352E-26
   5.502000     -7.2971871E-26
   5.508000     -8.6184804E-26
   5.514000     -9.5768121E-26
   5.520000     -1.0061721E-25
   5.526000     -9.9778874E-26
   5.532000     -9.2532466E-26
   5.538000     -7.8466694E-26
   5.544000     -5.7546984E-26
   5.550000     -3.0167606E-26
   5.556000      2.8165955E-27
   5.562000      4.0083640E-26
   5.568000      7.9866577E-26
   5.574000      1.2000672E-25
   5.580000      1.5803858E-25
   5.586000      1.9130507E-25
   5.592000      2.1709955E-25
   5.598000      2.3282926E-25
   5.604000      2.3619230E-25
   5.610000      2.2535905E-25
   5.616000      1.9914673E-25
   5.622000      1.5717580E-25
   5.628000      9.9995786E-26
   5.634000      2.9168945E-26
   5.640000     -5.2698491E-26
   5.646000     -1.4198609E-25
   5.652000     -2.3415554E-25
   5.658000     -3.2391561E-25
   5.664000     -4.0545404E-25
   5.670000     -4.7273012E-25
   5.676000     -5.1981694E-25
   5.682000     -5.4127859E-25
   5.688000     -5.3256384E-25
   5.694000     -4.9039262E-25
   5.700000     -4.1311272E-25
   5.706000     -3.0099959E-25
   5.712000     -1.5647574E-25
   5.718000      1.5774432E-26
   5.724000      2.0881284E-25
   5.730000      4.1359346E-25
   5.736000      6.1925266E-25